 Q-Chem 4.3, Q-Chem, Inc., Pleasanton, CA (2015)
 Q-Chem 4.3.0 for Intel X86 Linux

User input:
--------------------------------------------------------------
$rem
JOBTYPE sp
EXCHANGE B3LYP
BASIS 6-31+G(d)
GUI=2
SOLVENT_METHOD ONSAGER
pdb_print 2
NBO TRUE
$end

$nbo
nbosum
$end

$solvent
CavityRadius    30
Dielectric     78.39
$end

$molecule
-2 1
C         1.355   0.243   0.054
O         2.272   0.275  -0.817
O         1.349   0.869   1.161
C         0.080  -0.706  -0.225
C        -0.233  -0.676  -1.787
O         0.250  -1.961   0.194
C        -1.149   0.042   0.397
O        -2.005  -0.481   1.106
C        -1.356   1.531   0.038
H        -0.542   1.947  -0.559
H        -1.428   2.100   0.973
H        -2.309   1.632  -0.505
H        -1.086  -1.345  -1.977
H         0.664  -1.074  -2.271
H        -0.440   0.321  -2.215
$end

--------------------------------------------------------------

             Standard Nuclear Orientation (Angstroms)
    I     Atom           X                Y                Z
 ----------------------------------------------------------------
    1      C      -1.2477750392    -0.5098194515     0.2067667831
    2      O      -2.3536009518    -0.2831958904    -0.3644991906
    3      O      -0.9390487759    -1.5594031735     0.8551672033
    4      C      -0.1202200168     0.6434859306     0.1560384179
    5      C      -0.2119256696     1.3701138768    -1.2589933488
    6      O      -0.2240396112     1.5318978623     1.1457008510
    7      C       1.2525026691    -0.1092384687     0.0794394208
    8      O       2.2405357901     0.1597912201     0.7579374520
    9      C       1.4157696060    -1.2248956687    -0.9776811585
   10      H       0.4928084345    -1.4440925432    -1.5181961038
   11      H       1.7426952934    -2.1366761533    -0.4629521591
   12      H       2.2032996084    -0.9242169654    -1.6866577538
   13      H       0.5403472050     2.1731899483    -1.2795929984
   14      H      -1.2160565080     1.8029947512    -1.2990484109
   15      H      -0.0839749396     0.7182035040    -2.1414237860
 ----------------------------------------------------------------

   12    -495.0365440708      4.15E-06 Convergence criterion met
 Total energy in the final basis set = -495.0365440708

                    Orbital Energies (a.u.)
 --------------------------------------------------------------

 Alpha MOs
 -- Occupied --
-18.853 -18.778 -18.776 -18.731  -9.976  -9.948  -9.920  -9.915
 -9.883  -0.743  -0.697  -0.610  -0.602  -0.466  -0.412  -0.320
 -0.230  -0.183  -0.165  -0.151  -0.140  -0.126  -0.112  -0.094
 -0.078  -0.070  -0.060  -0.054  -0.025   0.039   0.058   0.069
  0.088   0.126   0.139

          Ground-State Mulliken Net Atomic Charges

     Atom                 Charge (a.u.)
  ----------------------------------------
      1 C                     0.345525
      2 O                    -0.629261
      3 O                    -0.598123
      4 C                    -0.229629
      5 C                    -0.510117
      6 O                    -0.655239
      7 C                     0.302361
      8 O                    -0.479133
      9 C                    -0.685601
     10 H                     0.227629
     11 H                     0.201692
     12 H                     0.166094
     13 H                     0.171764
     14 H                     0.226212
     15 H                     0.145827
  ----------------------------------------
  Sum of atomic charges =    -2.000000

                    Cartesian Multipole Moments
 -----------------------------------------------------------------
    Charge (ESU x 10^10)
                -9.6064
    Dipole Moment (Debye)
         X       4.1747      Y      -1.5519      Z      -4.3392
       Tot       6.2181
    Quadrupole Moments (Debye-Ang)
        XX     -93.2493     XY      -5.2929     YY     -82.7711
        XZ      -3.5697     YZ      -1.8964     ZZ     -74.7468

 Total job time:  196.11s(wall), 164.00s(cpu)
        *  Thank you very much for using Q-Chem.  Have a nice day.  *
