 Q-Chem 4.3, Q-Chem, Inc., Pleasanton, CA (2015)
 Q-Chem 4.3.0 for Intel X86 Linux

User input:
--------------------------------------------------------------
$rem
JOBTYPE Opt
EXCHANGE B3LYP
BASIS 6-31+G(d)
GUI=2
pdb_print 2
NBO TRUE
$end

$comment
reactantstate
$end

$molecule
-2 1
C        3.29600       -0.86600        2.39400
O        4.50600       -1.03900        2.12000
O        2.92600       -0.95400        3.64500
C        2.15900       -0.62100        1.29800
C        1.96600       -1.76700        0.31200
O        0.94700       -0.47600        2.01100
C        2.44300        0.67600        0.56700
O        1.59900        1.61900        0.54700
C        3.71800        0.81000       -0.11300
H        4.08300       -0.17800       -0.30800
H        4.36500        1.05500        0.71800
H        3.63500        1.42000       -1.07500
H        1.31600       -1.57200       -0.59100
H        1.23900       -2.36100        0.98400
H        2.92900       -2.26400        0.05400
$end

--------------------------------------------------------------

   18    -494.9413803244      5.31E-09 Convergence criterion met
 Total energy in the final basis set = -494.9413803244
   14    -494.9699308789      7.63E-09 Convergence criterion met
 Total energy in the final basis set = -494.9699308789
   14    -494.9858499261      3.65E-09 Convergence criterion met
 Total energy in the final basis set = -494.9858499261
   14    -494.9906977695      3.63E-09 Convergence criterion met
 Total energy in the final basis set = -494.9906977695
   14    -494.9931189276      3.22E-09 Convergence criterion met
 Total energy in the final basis set = -494.9931189276
   13    -494.9939676611      7.95E-09 Convergence criterion met
 Total energy in the final basis set = -494.9939676611
   13    -494.9944971025      6.11E-09 Convergence criterion met
 Total energy in the final basis set = -494.9944971025
   13    -494.9947439884      6.38E-09 Convergence criterion met
   11    -495.0013468122      8.72E-09 Convergence criterion met
 Total energy in the final basis set = -495.0013468122
   13    -495.0014399023      5.96E-09 Convergence criterion met
 Total energy in the final basis set = -495.0014399023
   13    -495.0015105116      5.78E-09 Convergence criterion met
 Total energy in the final basis set = -495.0015105116
   12    -495.0015716142      8.99E-09 Convergence criterion met
 Total energy in the final basis set = -495.0015716142
   12    -495.0016432020      8.01E-09 Convergence criterion met
 Total energy in the final basis set = -495.0016432020
   12    -495.0016486691      3.21E-09 Convergence criterion met
 Total energy in the final basis set = -495.0016486691

             Standard Nuclear Orientation (Angstroms)
    I     Atom           X                Y                Z
 ----------------------------------------------------------------
    1      C       1.3551248850     0.2485643113     0.0537517018
    2      O       2.2716537016     0.2820504387    -0.8189240305
    3      O       1.3484892980     0.8744559949     1.1603284777
    4      C       0.0817192489    -0.7056392020    -0.2250527470
    5      C      -0.2323384654    -0.6795161138    -1.7870200999
    6      O       0.2552898134    -1.9590499644     0.1970986663
    7      C      -1.1498580425     0.0408853916     0.3963641666
    8      O      -2.0064993687    -0.4838931603     1.1035101283
    9      C      -1.3576794659     1.5304784662     0.0392113981
   10      H      -0.5487564575     1.9455128640    -0.5662746545
   11      H      -1.4192462549     2.0997345583     0.9746164892
   12      H      -2.3162097498     1.6332037046    -0.4955696291
   13      H      -1.0846664174    -1.3506113173    -1.9754559161
   14      H       0.6659327988    -1.0757890482    -2.2713493334
   15      H      -0.4420960887     0.3171552086    -2.2165081506
 ----------------------------------------------------------------

   10    -495.0016493803      8.98E-09 Convergence criterion met
 Total energy in the final basis set = -495.0016493803
 Final energy is   -495.001649380297
 **  OPTIMIZATION CONVERGED  **

                    Orbital Energies (a.u.)
 --------------------------------------------------------------

 Alpha MOs
 -- Occupied --
-18.853 -18.778 -18.777 -18.731  -9.976  -9.948  -9.920  -9.915
 -9.883  -0.743  -0.697  -0.610  -0.602  -0.466  -0.412  -0.319
 -0.230  -0.183  -0.165  -0.151  -0.140  -0.126  -0.112  -0.094
 -0.079  -0.070  -0.060  -0.054  -0.025   0.039   0.058   0.069
  0.088   0.126   0.139

          Ground-State Mulliken Net Atomic Charges

     Atom                 Charge (a.u.)
  ----------------------------------------
      1 C                     0.343420
      2 O                    -0.629464
      3 O                    -0.597469
      4 C                    -0.226646
      5 C                    -0.509853
      6 O                    -0.654597
      7 C                     0.297513
      8 O                    -0.479178
      9 C                    -0.682288
     10 H                     0.227028
     11 H                     0.202581
     12 H                     0.165499
     13 H                     0.171766
     14 H                     0.226054
     15 H                     0.145634
  ----------------------------------------
  Sum of atomic charges =    -2.000000

                    Cartesian Multipole Moments
 -----------------------------------------------------------------
    Charge (ESU x 10^10)
                -9.6064
    Dipole Moment (Debye)
         X      -5.3713      Y       4.4267      Z      -2.0498
       Tot       7.2559
    Quadrupole Moments (Debye-Ang)
        XX     -92.9692     XY      -5.6365     YY     -82.8666
        XZ       4.8763     YZ      -0.4960     ZZ     -76.4791

 Total job time:  8685.66s(wall), 8698.94s(cpu)
        *  Thank you very much for using Q-Chem.  Have a nice day.  *
