 Q-Chem 4.3, Q-Chem, Inc., Pleasanton, CA (2015)
 Q-Chem 4.3.0 for Intel X86 Linux

User input:
--------------------------------------------------------------
$comment
Title
$end

$molecule
-2 1
C         3.457        -1.191          2.606
O         4.624        -1.367          2.196
O         3.356        -1.467          3.868
C         2.324        -0.624          1.826
C         1.991        -2.130          0.371
O         1.212        -0.374          2.453
C         2.487        -0.175          0.458
O         1.482         0.340         -0.175
C         3.801        -0.002         -0.170
H         3.755         0.068         -1.228
H         4.467        -0.895          0.059
H         4.390         0.859          0.236
H         1.159        -1.859         -0.396
H         1.585        -2.765          1.199
H         2.884        -2.558         -0.118
$end

$solvent
CavityRadius    30
Dielectric     78.39
$end

$molecule
READ
$end

$rem
jobtype          FREQ
exchange         b3lyp
basis            6-31+G(d)
pdb_print 2
SOLVENT_METHOD ONSAGER
NBO TRUE
$end

--------------------------------------------------------------

   17    -494.9701310317      7.30E-09 Convergence criterion met
 Total energy in the final basis set = -494.9701310317
 Frequency:      -353.21                -202.51                -125.98
 Force Cnst:      0.4404                 0.2507                 0.0109
 Red. Mass:       5.9916                10.3767                 1.1667
 IR Intens:      156.435                  0.176                  1.152
 Frequency:       116.87                 224.17                 245.40
 Force Cnst:      0.0426                 0.0812                 0.2390
 Red. Mass:       5.2910                 2.7438                 6.7366
 IR Intens:        3.165                  7.853                 18.507
 Frequency:       319.41                 348.19                 408.22
 Force Cnst:      0.3005                 0.2611                 0.1237
 Red. Mass:       4.9994                 3.6552                 1.2599
 IR Intens:       38.140                  1.041                  6.430
 Frequency:       431.44                 451.78                 521.50
 Force Cnst:      0.5014                 0.8230                 0.5771
 Red. Mass:       4.5722                 6.8437                 3.6013
 IR Intens:        4.741                 14.750                 36.793
 Frequency:       544.49                 546.30                 708.51
 Force Cnst:      0.9913                 0.9647                 1.4447
 Red. Mass:       5.6754                 5.4861                 4.8847
 IR Intens:       15.446                 75.002                 22.996
 Frequency:       779.71                 862.76                 882.67
 Force Cnst:      1.8216                 1.6054                 0.7893
 Red. Mass:       5.0855                 3.6607                 1.7194
 IR Intens:       21.819                 44.796                 23.574
 Frequency:       958.96                1007.60                1066.29
 Force Cnst:      0.7545                 0.8779                 1.0852
 Red. Mass:       1.3926                 1.4677                 1.6200
 IR Intens:       17.488                  3.885                 67.378
 Frequency:      1108.61                1215.39                1293.39
 Force Cnst:      3.1051                 1.0573                 5.3801
 Red. Mass:       4.2881                 1.2148                 5.4586
 IR Intens:       98.663                  9.854                 97.203
 Frequency:      1395.12                1423.68                1448.17
 Force Cnst:      3.9036                 6.7559                 1.4347
 Red. Mass:       3.4040                 5.6573                 1.1611
 IR Intens:      212.356                395.420                 15.032
 Frequency:      1461.02                1477.41                1500.80
 Force Cnst:      1.5974                 2.4597                 2.1574
 Red. Mass:       1.2701                 1.9127                 1.6257
 IR Intens:       25.360                149.467                 67.933
 Frequency:      1519.75                1551.26                1634.30
 Force Cnst:      1.5250                 2.2324                16.4584
 Red. Mass:       1.1207                 1.5745                10.4586
 IR Intens:        5.493                 90.057                286.897
 Frequency:      2505.57                2710.89                2861.08
 Force Cnst:      3.9417                 4.6406                 5.1848
 Red. Mass:       1.0657                 1.0718                 1.0750
 IR Intens:       43.013                 32.685                 90.948
 Frequency:      2871.60                3027.96                3394.51
 Force Cnst:      5.1932                 5.9321                 7.3547
 Red. Mass:       1.0689                 1.0981                 1.0833
 IR Intens:       55.697                 85.228                108.969
 Total job time:  3007.55s(wall), 3007.41s(cpu)
        *  Thank you very much for using Q-Chem.  Have a nice day.  *
 Q-Chem 4.3, Q-Chem, Inc., Pleasanton, CA (2015)
 Q-Chem 4.3.0 for Intel X86 Linux

User input:
--------------------------------------------------------------

$molecule
READ
$end

$solvent
CavityRadius    30
Dielectric     78.39
$end

$rem
SOLVENT_METHOD ONSAGER
jobtype          TS
exchange         b3lyp
basis            6-31+G(d)
geom_opt_maxcyc  100
$end

--------------------------------------------------------------

   17    -494.9701310317      7.30E-09 Convergence criterion met
 Total energy in the final basis set = -494.9701310317
   12    -494.9742915360      9.08E-09 Convergence criterion met
 Total energy in the final basis set = -494.9742915360
   13    -494.9910146674      6.93E-09 Convergence criterion met
 Total energy in the final basis set = -494.9910146674
   14    -495.0070809583      8.83E-09 Convergence criterion met
 Total energy in the final basis set = -495.0070809583
   13    -495.0107988373      9.01E-09 Convergence criterion met
 Total energy in the final basis set = -495.0107988373
   13    -495.0137706954      9.77E-09 Convergence criterion met
 Total energy in the final basis set = -495.0137706954
   13    -495.0152112570      9.50E-09 Convergence criterion met
   13    -495.0450097881      2.98E-09 Convergence criterion met
 Total energy in the final basis set = -495.0450097881
   11    -495.0450095055      6.00E-09 Convergence criterion met
 Total energy in the final basis set = -495.0450095055
   10    -495.0450101666      6.22E-09 Convergence criterion met
 Total energy in the final basis set = -495.0450101666
   12    -495.0449805575      6.06E-09 Convergence criterion met
 Total energy in the final basis set = -495.0449805575
   12    -495.0450098883      8.46E-09 Convergence criterion met
 Total energy in the final basis set = -495.0450098883
    9    -495.0450102439      9.10E-09 Convergence criterion met
 Total energy in the final basis set = -495.0450102439
 Final energy is   -495.045010243865
 **  OPTIMIZATION CONVERGED  **
        *  Thank you very much for using Q-Chem.  Have a nice day.  *
 Q-Chem 4.3, Q-Chem, Inc., Pleasanton, CA (2015)
 Q-Chem 4.3.0 for Intel X86 Linux

User input:
--------------------------------------------------------------

$solvent
CavityRadius    30
Dielectric     78.39
$end

$molecule
READ
$end

$rem
jobtype          FREQ
exchange         b3lyp
basis            6-31+G(d)
pdb_print 2
NBO TRUE
SOLVENT_METHOD ONSAGER
$end
--------------------------------------------------------------

             Standard Nuclear Orientation (Angstroms)
    I     Atom           X                Y                Z
 ----------------------------------------------------------------
    1      C       1.6146304157     0.2514269858     0.0006745120
    2      O       1.4537983893     1.5067551095     0.0177241041
    3      O       2.7053999665    -0.3774702253    -0.0165304440
    4      C       0.2801291799    -0.6698084133     0.0023366756
    5      C      -1.2824902811     0.8757607709    -1.2698013172
    6      O       0.4336588369    -1.8803620674     0.0124144733
    7      C      -1.2011591851    -0.0621152179    -0.0051857810
    8      O      -2.1711273723    -0.9866036308    -0.0180737753
    9      C      -1.2975155442     0.8556665612     1.2743841309
   10      H      -2.3015633625     1.3094094402     1.2701609074
   11      H      -0.5260698165     1.6347622057     1.3152247605
   12      H      -1.2290426089     0.2166570010     2.1675878466
   13      H      -2.2890442142     1.3235627053    -1.2748757885
   14      H      -1.1956469163     0.2528771934    -2.1729241885
   15      H      -0.5140391568     1.6585938463    -1.2838977247
 ----------------------------------------------------------------

   17    -495.0450880873      5.94E-09 Convergence criterion met
 Total energy in the final basis set = -495.0450880873

                    Orbital Energies (a.u.)
 --------------------------------------------------------------

 Alpha MOs
 -- Occupied --
-18.844 -18.801 -18.799 -18.738  -9.975  -9.957  -9.928  -9.886
 -9.885  -0.740  -0.714  -0.636  -0.612  -0.442  -0.392  -0.323
 -0.240  -0.173  -0.150  -0.145  -0.131  -0.117  -0.114  -0.105
 -0.088  -0.072  -0.060  -0.042  -0.031   0.015   0.047   0.061
  0.080   0.116   0.122

          Ground-State Mulliken Net Atomic Charges

     Atom                 Charge (a.u.)
  ----------------------------------------
      1 C                     0.336860
      2 O                    -0.605699
      3 O                    -0.622353
      4 C                     0.277438
      5 C                    -0.643065
      6 O                    -0.421310
      7 C                    -0.122599
      8 O                    -0.665959
      9 C                    -0.640305
     10 H                     0.159815
     11 H                     0.218083
     12 H                     0.175690
     13 H                     0.160062
     14 H                     0.174966
     15 H                     0.218375
  ----------------------------------------
  Sum of atomic charges =    -2.000000

                    Cartesian Multipole Moments
 -----------------------------------------------------------------
    Charge (ESU x 10^10)
                -9.6064
    Dipole Moment (Debye)
         X      -0.3710      Y       2.2467      Z       0.0360
       Tot       2.2774
    Quadrupole Moments (Debye-Ang)
        XX    -111.7657     XY      -8.5048     YY     -83.4017
        XZ      -0.0657     YZ      -0.1198     ZZ     -64.2754

 Frequency:       -62.69                  85.96                 198.51
 Force Cnst:      0.0292                 0.0242                 0.0359
 Red. Mass:      12.6199                 5.5663                 1.5476
 IR Intens:        0.774                  1.698                  3.211
 Frequency:       201.93                 246.99                 252.11
 Force Cnst:      0.1290                 0.0545                 0.0473
 Red. Mass:       5.3691                 1.5172                 1.2625
 IR Intens:        7.967                  3.180                  1.431
 Frequency:       288.99                 331.19                 357.80
 Force Cnst:      0.1515                 0.5186                 0.3123
 Red. Mass:       3.0793                 8.0253                 4.1411
 IR Intens:        0.031                  1.387                  1.694
 Frequency:       401.31                 435.84                 524.94
 Force Cnst:      0.5370                 0.4955                 0.6321
 Red. Mass:       5.6596                 4.4272                 3.8932
 IR Intens:        1.201                 16.134                  4.396
 Frequency:       537.54                 602.08                 766.02
 Force Cnst:      1.0614                 1.0280                 4.5145
 Red. Mass:       6.2343                 4.8133                13.0579
 IR Intens:        6.076                 14.622                 76.615
 Frequency:       788.08                 811.16                 857.94
 Force Cnst:      1.9314                 1.1972                 0.8901
 Red. Mass:       5.2782                 3.0881                 2.0524
 IR Intens:        4.774                  1.882                 30.627
 Frequency:       937.84                 989.45                1029.83
 Force Cnst:      3.5447                 0.7806                 1.1813
 Red. Mass:       6.8402                 1.3533                 1.8905
 IR Intens:       55.477                  5.165                 58.767
 Frequency:      1112.78                1160.75                1244.23
 Force Cnst:      1.8584                 1.7087                 4.4320
 Red. Mass:       2.5472                 2.1525                 4.8590
 IR Intens:       55.869                  8.366                213.097
 Frequency:      1328.25                1331.85                1352.40
 Force Cnst:      9.0439                 1.2633                 1.3833
 Red. Mass:       8.7005                 1.2087                 1.2836
 IR Intens:      126.450                 24.015                 58.277
 Frequency:      1482.87                1495.47                1500.58
 Force Cnst:      1.3607                 1.3950                 1.4034
 Red. Mass:       1.0503                 1.0587                 1.0578
 IR Intens:        0.333                 14.302                  1.331
 Frequency:      1516.49                1644.67                1735.09
 Force Cnst:      1.4307                18.1545                23.2953
 Red. Mass:       1.0559                11.3914                13.1332
 IR Intens:        6.478                508.320                273.507
 Frequency:      2980.41                2988.26                3038.49
 Force Cnst:      5.4218                 5.4473                 5.9773
 Red. Mass:       1.0360                 1.0354                 1.0988
 IR Intens:       92.661                146.836                 71.709
 Frequency:      3044.88                3089.30                3096.29
 Force Cnst:      5.9927                 6.1868                 6.2084
 Red. Mass:       1.0971                 1.1003                 1.0991
 IR Intens:      102.624                  2.696                 89.244

 STANDARD THERMODYNAMIC QUANTITIES AT   298.15 K  AND     1.00 ATM

   This Molecule has  1 Imaginary Frequencies
   Zero point vibrational energy:       65.458 kcal/mol

   Atom    1 Element C  Has Mass   12.00000
   Atom    2 Element O  Has Mass   15.99491
   Atom    3 Element O  Has Mass   15.99491
   Atom    4 Element C  Has Mass   12.00000
   Atom    5 Element C  Has Mass   12.00000
   Atom    6 Element O  Has Mass   15.99491
   Atom    7 Element C  Has Mass   12.00000
   Atom    8 Element O  Has Mass   15.99491
   Atom    9 Element C  Has Mass   12.00000
   Atom   10 Element H  Has Mass    1.00783
   Atom   11 Element H  Has Mass    1.00783
   Atom   12 Element H  Has Mass    1.00783
   Atom   13 Element H  Has Mass    1.00783
   Atom   14 Element H  Has Mass    1.00783
   Atom   15 Element H  Has Mass    1.00783
   Molecular Mass:   130.026620 amu
   Principal axes and moments of inertia in amu*Bohr^2:
                             1           2           3
    Eigenvalues --      708.06783  1384.89160  1700.01944
          X               0.99896    -0.04561    -0.00035
          Y               0.04561     0.99896    -0.00089
          Z               0.00039     0.00087     1.00000
   Rotational Symmetry Number is   1
   The Molecule is an Asymmetric Top
   Translational Enthalpy:        0.889 kcal/mol
   Rotational Enthalpy:           0.889 kcal/mol
   Vibrational Enthalpy:         69.042 kcal/mol
   gas constant (RT):             0.592 kcal/mol
   Translational Entropy:        40.501  cal/mol.K
   Rotational Entropy:           28.901  cal/mol.K
   Vibrational Entropy:          20.147  cal/mol.K

   Total Enthalpy:               71.412 kcal/mol
   Total Entropy:                89.549  cal/mol.K

 Total job time:  2989.38s(wall), 2988.96s(cpu)
        *  Thank you very much for using Q-Chem.  Have a nice day.  *
