 Q-Chem 4.3, Q-Chem, Inc., Pleasanton, CA (2015)
 Q-Chem 4.3.0 for Intel X86 Linux

User input:
--------------------------------------------------------------
$comment
TS Frame 1020 converged, trying to find the RPATH now
$end

$molecule
-2 1
C
O  1 1.266166
C  1 1.501701 2 121.942692
O  3 1.253523 1 124.466424 2 2.481059 0
C  3 1.535840 1 118.144822 2 -171.911579 0
H  5 1.092857 3 113.598303 1 -18.094820 0
H  5 1.099114 3 108.067065 1 101.564700 0
H  5 1.100575 3 108.683140 1 -140.953714 0
C  1 1.580999 2 117.021145 3 -157.215339 0
O  9 1.262592 1 119.509853 2 -76.735683 0
O  9 1.270833 1 113.491741 2 99.649612 0
C  1 2.078293 2 107.888271 3 84.219046 0
H  12 1.092352 1 98.300440 2 -32.861421 0
H  12 1.092402 1 91.513803 2 81.657851 0
H  12 1.100580 1 126.448085 2 -159.194350 0
$end

$rem
jobtype freq
basis 6-31+G(d)
exchange b3lyp
$end

--------------------------------------------------------------

   17    -494.9863874225      4.47E-09 Convergence criterion met
 Total energy in the final basis set = -494.9863874225
 Frequency:      -274.69                  61.05                 132.50
 Force Cnst:      0.2436                 0.0207                 0.0468
 Red. Mass:       5.4797                 9.4305                 4.5213
 IR Intens:      127.615                  2.509                  0.180
 Frequency:       154.01                 175.66                 231.06
 Force Cnst:      0.0170                 0.0419                 0.1016
 Red. Mass:       1.2133                 2.3049                 3.2285
 IR Intens:        1.681                  6.761                 12.477
 Frequency:       236.82                 271.61                 322.04
 Force Cnst:      0.0543                 0.1182                 0.3393
 Red. Mass:       1.6436                 2.7185                 5.5526
 IR Intens:        9.590                 22.648                 14.267
 Frequency:       339.52                 390.80                 418.38
 Force Cnst:      0.7939                 0.6145                 0.4091
 Red. Mass:      11.6895                 6.8290                 3.9663
 IR Intens:        6.084                  5.686                 13.506
 Frequency:       481.14                 555.97                 643.17
 Force Cnst:      0.3407                 0.6261                 0.9321
 Red. Mass:       2.4979                 3.4382                 3.8244
 IR Intens:       57.388                 76.198                 16.179
 Frequency:       762.72                 769.53                 815.02
 Force Cnst:      0.9574                 0.6491                 2.8836
 Red. Mass:       2.7934                 1.8605                 7.3679
 IR Intens:       23.844                 40.167                  9.289
 Frequency:       843.75                 983.28                1029.34
 Force Cnst:      0.8393                 1.3678                 1.5040
 Red. Mass:       2.0009                 2.4012                 2.4093
 IR Intens:       23.957                 46.641                 38.315
 Frequency:      1038.23                1040.84                1221.50
 Force Cnst:      0.9315                 0.9328                 4.0123
 Red. Mass:       1.4667                 1.4614                 4.5640
 IR Intens:       19.502                 56.055                 89.726
 Frequency:      1362.82                1382.70                1438.88
 Force Cnst:     13.7289                 1.4231                 1.3362
 Red. Mass:      12.5461                 1.2634                 1.0954
 IR Intens:      152.737                 18.684                  4.222
 Frequency:      1468.18                1486.04                1492.78
 Force Cnst:      1.3697                 1.4247                 1.3992
 Red. Mass:       1.0785                 1.0950                 1.0657
 IR Intens:        9.688                 43.695                 12.534
 Frequency:      1513.07                1600.44                1610.48
 Force Cnst:     12.9685                12.3252                17.7812
 Red. Mass:       9.6144                 8.1671                11.6360
 IR Intens:      374.161                541.344                523.921
 Frequency:      2995.37                3004.84                3058.38
 Force Cnst:      5.4553                 5.5344                 6.0453
 Red. Mass:       1.0320                 1.0403                 1.0970
 IR Intens:       78.697                135.806                 55.689
 Frequency:      3123.77                3134.76                3182.68
 Force Cnst:      6.2900                 6.3433                 6.6321
 Red. Mass:       1.0941                 1.0956                 1.1113
 IR Intens:       49.909                 30.793                 16.063

 STANDARD THERMODYNAMIC QUANTITIES AT   298.15 K  AND     1.00 ATM

   This Molecule has  1 Imaginary Frequencies
   Zero point vibrational energy:       64.006 kcal/mol

   Atom    1 Element C  Has Mass   12.00000
   Atom    2 Element O  Has Mass   15.99491
   Atom    3 Element C  Has Mass   12.00000
   Atom    4 Element O  Has Mass   15.99491
   Atom    5 Element C  Has Mass   12.00000
   Atom    6 Element H  Has Mass    1.00783
   Atom    7 Element H  Has Mass    1.00783
   Atom    8 Element H  Has Mass    1.00783
   Atom    9 Element C  Has Mass   12.00000
   Atom   10 Element O  Has Mass   15.99491
   Atom   11 Element O  Has Mass   15.99491
   Atom   12 Element C  Has Mass   12.00000
   Atom   13 Element H  Has Mass    1.00783
   Atom   14 Element H  Has Mass    1.00783
   Atom   15 Element H  Has Mass    1.00783
   Molecular Mass:   130.026620 amu
   Principal axes and moments of inertia in amu*Bohr^2:
                             1           2           3
    Eigenvalues --      802.04304  1318.44576  1463.26741
          X               0.99911    -0.02645    -0.03284
          Y               0.02513     0.99888    -0.04000
          Z               0.03387     0.03914     0.99866
   Rotational Symmetry Number is   1
   The Molecule is an Asymmetric Top
   Translational Enthalpy:        0.889 kcal/mol
   Rotational Enthalpy:           0.889 kcal/mol
   Vibrational Enthalpy:         68.183 kcal/mol
   gas constant (RT):             0.592 kcal/mol
   Translational Entropy:        40.501  cal/mol.K
   Rotational Entropy:           28.827  cal/mol.K
   Vibrational Entropy:          24.984  cal/mol.K

   Total Enthalpy:               70.553 kcal/mol
   Total Entropy:                94.311  cal/mol.K

 Total job time:  3011.30s(wall), 3011.25s(cpu)
        *  Thank you very much for using Q-Chem.  Have a nice day.  *
 Q-Chem 4.3, Q-Chem, Inc., Pleasanton, CA (2015)
 Q-Chem 4.3.0 for Intel X86 Linux

User input:
--------------------------------------------------------------
$molecule
READ
$end

$rem
RPATH_MAX_CYCLES 120
jobtype rpath
basis 6-31+G(d)
exchange b3lyp
pdb_print 2
scf_guess read
$end
--------------------------------------------------------------

    2    -494.9863874233      2.96E-09 Convergence criterion met
 Total energy in the final basis set = -494.9863874233
   13    -494.9866673632      4.68E-09 Convergence criterion met
 Total energy in the final basis set = -494.9866673632
   12    -494.9865062294      6.96E-09 Convergence criterion met
 Total energy in the final basis set = -494.9865062294
   12    -494.9866683418      7.87E-09 Convergence criterion met
 Total energy in the final basis set = -494.9866683418
   13    -494.9872218591      6.60E-09 Convergence criterion met
 Total energy in the final basis set = -494.9872218591
   13    -494.9851261126      8.03E-09 Convergence criterion met
 Total energy in the final basis set = -494.9851261126
   13    -494.9873506444      7.34E-09 Convergence criterion met
 Total energy in the final basis set = -495.0147909325
   13    -495.0153079037      5.52E-09 Convergence criterion met
 Total energy in the final basis set = -495.0153079037
   13    -495.0151461314      3.55E-09 Convergence criterion met
 Total energy in the final basis set = -495.0151461314
   12    -495.0153683325      3.69E-09 Convergence criterion met
 Total energy in the final basis set = -495.0153683325
   14    -495.0130584034      2.79E-09 Convergence criterion met
 Total energy in the final basis set = -495.0130584034
   14    -495.0154291357      2.67E-09 Convergence criterion met
 Total energy in the final basis set = -495.0154291357
   11    -495.0154169105      7.79E-09 Convergence criterion met
 Total energy in the final basis set = -495.0154169105
   11    -495.0154469234      4.82E-09 Convergence criterion met
 Total energy in the final basis set = -495.0154469234

                    Orbital Energies (a.u.)
 --------------------------------------------------------------

 Alpha MOs
 -- Occupied --
-18.842 -18.806 -18.805 -18.742  -9.977  -9.960  -9.932  -9.889
 -9.888  -0.739  -0.714  -0.641  -0.616  -0.448  -0.395  -0.337
 -0.249  -0.176  -0.154  -0.144  -0.132  -0.125  -0.115  -0.105
 -0.088  -0.073  -0.065  -0.041  -0.034   0.007   0.042   0.057
  0.073   0.113   0.122

          Ground-State Mulliken Net Atomic Charges

     Atom                 Charge (a.u.)
  ----------------------------------------
      1 C                     0.335066
      2 O                    -0.464848
      3 C                     0.041147
      4 O                    -0.679668
      5 C                    -0.700255
      6 H                     0.182453
      7 H                     0.200403
      8 H                     0.165415
      9 C                     0.217589
     10 O                    -0.592775
     11 O                    -0.593476
     12 C                    -0.672852
     13 H                     0.199398
     14 H                     0.222823
     15 H                     0.139579
  ----------------------------------------
  Sum of atomic charges =    -2.000000

                    Cartesian Multipole Moments
 -----------------------------------------------------------------
    Charge (ESU x 10^10)
                -9.6064
    Dipole Moment (Debye)
         X      -0.6420      Y       0.1152      Z       3.1204
       Tot       3.1878
    Quadrupole Moments (Debye-Ang)
        XX    -107.9808     XY      -7.0399     YY     -74.9777
        XZ      -2.5289     YZ       0.0539     ZZ     -74.7767

             Standard Nuclear Orientation (Angstroms)
    I     Atom           X                Y                Z
 ----------------------------------------------------------------
    1      C       0.0797945966    -0.4909783694    -0.4223075321
    2      O       0.1313474063    -1.4572744400    -1.2388799730
    3      C      -1.1864532086     0.2798716911    -0.1824897396
    4      O      -2.2889245969     0.0175537506    -0.7182751888
    5      C      -1.1098133330     1.5491098778     0.6788843141
    6      H      -0.2072507241     1.6077002662     1.2923045011
    7      H      -1.1176993056     2.4184439439     0.0063906875
    8      H      -2.0042769838     1.5956880274     1.3184393032
    9      C       1.4423313860     0.2349101035    -0.0815183592
   10      O       2.2586348364    -0.3142909509     0.7097877997
   11      O       1.6143739870     1.3173156007    -0.7248038300
   12      C      -0.6241447946    -1.2240138460     1.3905438455
   13      H      -1.2884339969    -1.9983756046     1.0002662336
   14      H       0.3695936068    -1.5869677565     1.6627396904
   15      H      -1.0856735372    -0.6363173016     2.1985539493
 ----------------------------------------------------------------

 Total job time:  35476.79s(wall), 35512.34s(cpu)
        *  Thank you very much for using Q-Chem.  Have a nice day.  *
