 Q-Chem 4.3, Q-Chem, Inc., Pleasanton, CA (2015)
 Q-Chem 4.3.0 for Intel X86 Linux

User input:
--------------------------------------------------------------
$comment
Title
$end

$molecule
-2 1
C         3.482        -1.293          2.592
O         4.604        -1.526          2.079
O         3.194        -1.569          3.821
C         2.365        -0.592          1.813
C         2.021        -2.059          0.354
O         1.230        -0.402          2.463
C         2.527        -0.076          0.488
O         1.515         0.612         -0.000
C         3.800         0.166         -0.353
H         3.536         0.012         -1.506
H         4.716        -0.436         -0.146
H         4.057         1.252         -0.092
H         1.102        -1.867         -0.317
H         1.762        -2.664          1.271
H         2.920        -2.432         -0.218
$end

$solvent
CavityRadius    30
Dielectric     78.39
$end

$molecule
READ
$end

$rem
jobtype          FREQ
exchange         b3lyp
basis            6-31+G(d)
pdb_print 2
SOLVENT_METHOD ONSAGER
NBO TRUE
$end

--------------------------------------------------------------

   17    -494.9784211803      6.17E-09 Convergence criterion met
 Total energy in the final basis set = -494.9784211803
 Frequency:      -344.07                 -51.73                 150.51
 Force Cnst:      0.4544                 0.0184                 0.0762
 Red. Mass:       6.5151                11.6920                 5.7073
 IR Intens:      144.932                  0.216                  4.586
 Frequency:       209.94                 260.30                 315.35
 Force Cnst:      0.1444                 0.1623                 0.3031
 Red. Mass:       5.5614                 4.0656                 5.1723
 IR Intens:       12.218                  8.750                 33.080
 Frequency:       357.82                 444.91                 458.48
 Force Cnst:      0.3389                 1.3019                 1.4520
 Red. Mass:       4.4922                11.1635                11.7241
 IR Intens:        1.225                  3.941                  3.161
 Frequency:       503.24                 544.53                 557.61
 Force Cnst:      0.4985                 0.5921                 0.2519
 Red. Mass:       3.3411                 3.3890                 1.3751
 IR Intens:       57.468                 34.286                  6.824
 Frequency:       578.60                 602.54                 665.02
 Force Cnst:      0.5671                 0.2822                 1.0737
 Red. Mass:       2.8753                 1.3194                 4.1207
 IR Intens:       50.339                  7.386                 21.038
 Frequency:       790.64                 811.42                 937.39
 Force Cnst:      3.5674                 3.3075                 0.6261
 Red. Mass:       9.6861                 8.5262                 1.2095
 IR Intens:       56.654                 18.229                 20.110
 Frequency:       996.18                1014.23                1089.44
 Force Cnst:      2.0595                 0.7297                 1.2429
 Red. Mass:       3.5223                 1.2040                 1.7774
 IR Intens:       73.908                  7.105                 59.770
 Frequency:      1161.12                1193.74                1220.92
 Force Cnst:      1.1296                 1.8169                 1.7685
 Red. Mass:       1.4220                 2.1640                 2.0137
 IR Intens:        8.801                160.964                139.585
 Frequency:      1253.64                1352.62                1439.05
 Force Cnst:      6.1063                12.6372                 1.5394
 Red. Mass:       6.5945                11.7233                 1.2617
 IR Intens:       70.826                277.972                  8.547
 Frequency:      1475.89                1482.46                1505.75
 Force Cnst:      1.3938                 1.9386                 2.2808
 Red. Mass:       1.0860                 1.4972                 1.7074
 IR Intens:        1.514                 81.742                103.894
 Frequency:      1516.04                1548.52                1607.65
 Force Cnst:      1.7519                 1.5425                16.6630
 Red. Mass:       1.2937                 1.0918                10.9425
 IR Intens:       42.541                 12.932                439.060
 Frequency:      2263.29                2586.50                2639.97
 Force Cnst:      3.2185                 4.1426                 4.4168
 Red. Mass:       1.0664                 1.0510                 1.0756
 IR Intens:      143.253                 63.847                 77.558
 Frequency:      2772.87                2846.21                2914.84
 Force Cnst:      4.8572                 5.3025                 5.4155
 Red. Mass:       1.0722                 1.1110                 1.0818
 IR Intens:       73.313                 37.676                 59.188
 Total job time:  2996.23s(wall), 2996.83s(cpu)
        *  Thank you very much for using Q-Chem.  Have a nice day.  *
 Q-Chem 4.3, Q-Chem, Inc., Pleasanton, CA (2015)
 Q-Chem 4.3.0 for Intel X86 Linux

User input:
--------------------------------------------------------------

$molecule
READ
$end

$solvent
CavityRadius    30
Dielectric     78.39
$end

$rem
SOLVENT_METHOD ONSAGER
jobtype          TS
exchange         b3lyp
basis            6-31+G(d)
geom_opt_maxcyc  100
$end

--------------------------------------------------------------

   17    -494.9784211803      6.17E-09 Convergence criterion met
 Total energy in the final basis set = -494.9784211803
   12    -494.9793374970      6.87E-09 Convergence criterion met
 Total energy in the final basis set = -494.9793374970
   13    -494.9832593296      4.73E-09 Convergence criterion met
 Total energy in the final basis set = -494.9832593296
   14    -494.9996368487      8.16E-09 Convergence criterion met
 Total energy in the final basis set = -494.9996368487
   13    -495.0044164625      5.78E-09 Convergence criterion met
 Total energy in the final basis set = -495.0044164625
   13    -495.0098287051      9.61E-09 Convergence criterion met
 Total energy in the final basis set = -495.0098287051
   14    -495.0128219634      7.76E-09 Convergence criterion met
   12    -495.0211016456      3.82E-09 Convergence criterion met
 Total energy in the final basis set = -495.0211016456
   11    -495.0211290598      9.02E-09 Convergence criterion met
 Total energy in the final basis set = -495.0211290598
   11    -495.0211371428      3.19E-09 Convergence criterion met
 Total energy in the final basis set = -495.0211371428
   11    -495.0211418532      7.91E-09 Convergence criterion met
 Total energy in the final basis set = -495.0211418532
   10    -495.0211447431      8.20E-09 Convergence criterion met
 Total energy in the final basis set = -495.0211447431
   11    -495.0211453310      4.94E-09 Convergence criterion met
 Total energy in the final basis set = -495.0211453310
 Final energy is   -495.021145331040
 **  OPTIMIZATION CONVERGED  **
        *  Thank you very much for using Q-Chem.  Have a nice day.  *
 Q-Chem 4.3, Q-Chem, Inc., Pleasanton, CA (2015)
 Q-Chem 4.3.0 for Intel X86 Linux

User input:
--------------------------------------------------------------

$solvent
CavityRadius    30
Dielectric     78.39
$end

$molecule
READ
$end

$rem
jobtype          FREQ
exchange         b3lyp
basis            6-31+G(d)
pdb_print 2
NBO TRUE
SOLVENT_METHOD ONSAGER
$end
--------------------------------------------------------------

             Standard Nuclear Orientation (Angstroms)
    I     Atom           X                Y                Z
 ----------------------------------------------------------------
    1      C       1.4423311543     0.2349103605     0.0815182201
    2      O       1.6143735329     1.3173161775     0.7248037566
    3      O       2.2586346911    -0.3142904627    -0.7097881202
    4      C       0.0797950620    -0.4909783799     0.4223075910
    5      C      -0.6241445187    -1.2240142864    -1.3905439022
    6      O       0.1313483682    -1.4572744789     1.2388801297
    7      C      -1.1864533876     0.2798714274     0.1824899469
    8      O      -2.2889242857     0.0175531995     0.7182754795
    9      C      -1.1098141096     1.5491099103    -0.6788843856
   10      H      -2.0042780933     1.5956877263    -1.3184393308
   11      H      -0.2072518457     1.6077005787    -1.2923046046
   12      H      -1.1177002579     2.4184440532    -0.0063907549
   13      H      -1.2884335447    -1.9983764520    -1.0002660410
   14      H       0.3695938342    -1.5869678145    -1.6627398886
   15      H      -1.0856737474    -0.6363177664    -2.1985541653
 ----------------------------------------------------------------

   17    -495.0212229622      4.45E-09 Convergence criterion met
 Total energy in the final basis set = -495.0212229622

                    Orbital Energies (a.u.)
 --------------------------------------------------------------

 Alpha MOs
 -- Occupied --
-18.821 -18.789 -18.788 -18.786  -9.967  -9.963  -9.943  -9.911
 -9.881  -0.716  -0.707  -0.663  -0.622  -0.461  -0.388  -0.336
 -0.243  -0.180  -0.157  -0.144  -0.136  -0.113  -0.108  -0.098
 -0.094  -0.083  -0.067  -0.058  -0.009   0.031   0.044   0.058
  0.075   0.104   0.111

          Ground-State Mulliken Net Atomic Charges

     Atom                 Charge (a.u.)
  ----------------------------------------
      1 C                     0.319744
      2 O                    -0.605528
      3 O                    -0.612944
      4 C                     0.260471
      5 C                    -0.928775
      6 O                    -0.586870
      7 C                     0.311509
      8 O                    -0.558132
      9 C                    -0.770380
     10 H                     0.169548
     11 H                     0.225161
     12 H                     0.192560
     13 H                     0.200285
     14 H                     0.233196
     15 H                     0.150157
  ----------------------------------------
  Sum of atomic charges =    -2.000000

                    Cartesian Multipole Moments
 -----------------------------------------------------------------
    Charge (ESU x 10^10)
                -9.6064
    Dipole Moment (Debye)
         X      -2.6605      Y       2.4854      Z      -1.7193
       Tot       4.0263
    Quadrupole Moments (Debye-Ang)
        XX    -100.0490     XY      -5.1949     YY     -78.7907
        XZ       3.5049     YZ      -2.2256     ZZ     -76.7039

 Frequency:      -274.70                  61.09                 132.50
 Force Cnst:      0.2436                 0.0207                 0.0468
 Red. Mass:       5.4800                 9.4304                 4.5235
 IR Intens:      125.627                  2.512                  0.159
 Frequency:       154.01                 175.67                 231.06
 Force Cnst:      0.0170                 0.0419                 0.1015
 Red. Mass:       1.2131                 2.3049                 3.2274
 IR Intens:        1.605                  6.629                 11.777
 Frequency:       236.83                 271.62                 322.07
 Force Cnst:      0.0543                 0.1182                 0.3393
 Red. Mass:       1.6436                 2.7194                 5.5524
 IR Intens:        9.553                 22.329                 13.760
 Frequency:       339.53                 390.79                 418.38
 Force Cnst:      0.7940                 0.6144                 0.4091
 Red. Mass:      11.6899                 6.8282                 3.9663
 IR Intens:        6.358                  5.858                 13.629
 Frequency:       481.16                 555.96                 643.19
 Force Cnst:      0.3407                 0.6262                 0.9322
 Red. Mass:       2.4978                 3.4383                 3.8246
 IR Intens:       57.487                 75.386                 16.959
 Frequency:       762.72                 769.54                 815.04
 Force Cnst:      0.9576                 0.6492                 2.8833
 Red. Mass:       2.7938                 1.8606                 7.3669
 IR Intens:       23.737                 40.519                  9.562
 Frequency:       843.79                 983.32                1029.36
 Force Cnst:      0.8393                 1.3686                 1.5025
 Red. Mass:       2.0007                 2.4023                 2.4067
 IR Intens:       23.364                 45.780                 36.425
 Frequency:      1038.30                1040.88                1221.55
 Force Cnst:      0.9312                 0.9337                 4.0114
 Red. Mass:       1.4661                 1.4627                 4.5627
 IR Intens:       20.075                 56.199                 89.409
 Frequency:      1362.82                1382.84                1438.91
 Force Cnst:     13.7361                 1.4233                 1.3363
 Red. Mass:      12.5526                 1.2633                 1.0955
 IR Intens:      150.649                 18.492                  4.223
 Frequency:      1468.20                1486.18                1492.94
 Force Cnst:      1.3697                 1.4252                 1.3996
 Red. Mass:       1.0785                 1.0951                 1.0658
 IR Intens:        9.551                 43.828                 12.048
 Frequency:      1513.08                1600.46                1610.48
 Force Cnst:     12.9544                12.3182                17.7779
 Red. Mass:       9.6038                 8.1622                11.6337
 IR Intens:      360.648                527.718                524.021
 Frequency:      2995.36                3004.84                3058.39
 Force Cnst:      5.4553                 5.5344                 6.0454
 Red. Mass:       1.0320                 1.0403                 1.0970
 IR Intens:       89.571                168.107                 52.087
 Frequency:      3123.76                3134.77                3182.68
 Force Cnst:      6.2900                 6.3433                 6.6321
 Red. Mass:       1.0941                 1.0956                 1.1113
 IR Intens:       43.972                 31.423                 16.057

 STANDARD THERMODYNAMIC QUANTITIES AT   298.15 K  AND     1.00 ATM

   This Molecule has  1 Imaginary Frequencies
   Zero point vibrational energy:       64.008 kcal/mol

   Atom    1 Element C  Has Mass   12.00000
   Atom    2 Element O  Has Mass   15.99491
   Atom    3 Element O  Has Mass   15.99491
   Atom    4 Element C  Has Mass   12.00000
   Atom    5 Element C  Has Mass   12.00000
   Atom    6 Element O  Has Mass   15.99491
   Atom    7 Element C  Has Mass   12.00000
   Atom    8 Element O  Has Mass   15.99491
   Atom    9 Element C  Has Mass   12.00000
   Atom   10 Element H  Has Mass    1.00783
   Atom   11 Element H  Has Mass    1.00783
   Atom   12 Element H  Has Mass    1.00783
   Atom   13 Element H  Has Mass    1.00783
   Atom   14 Element H  Has Mass    1.00783
   Atom   15 Element H  Has Mass    1.00783
   Molecular Mass:   130.026620 amu
   Principal axes and moments of inertia in amu*Bohr^2:
                             1           2           3
    Eigenvalues --      802.04327  1318.44573  1463.26744
          X               0.99911    -0.02645     0.03284
          Y               0.02513     0.99888     0.04000
          Z              -0.03387    -0.03914     0.99866
   Rotational Symmetry Number is   1
   The Molecule is an Asymmetric Top
   Translational Enthalpy:        0.889 kcal/mol
   Rotational Enthalpy:           0.889 kcal/mol
   Vibrational Enthalpy:         68.184 kcal/mol
   gas constant (RT):             0.592 kcal/mol
   Translational Entropy:        40.501  cal/mol.K
   Rotational Entropy:           28.827  cal/mol.K
   Vibrational Entropy:          24.982  cal/mol.K

   Total Enthalpy:               70.554 kcal/mol
   Total Entropy:                94.310  cal/mol.K

 Total job time:  2986.63s(wall), 2987.03s(cpu)
        *  Thank you very much for using Q-Chem.  Have a nice day.  *
