 Q-Chem 4.3, Q-Chem, Inc., Pleasanton, CA (2015)
 Q-Chem 4.3.0 for Intel X86 Linux

User input:
--------------------------------------------------------------
$molecule
-2  1
C    1.35554    0.24384    0.05485
O    2.27286    0.27594   -0.81703
O    1.34948    0.86917    1.16185
C    0.08028   -0.70682   -0.22526
C   -0.23305   -0.67675   -1.78759
O    0.25010   -1.96139    0.19462
C   -1.14952    0.04215    0.39764
O   -2.00535   -0.48110    1.10685
C   -1.35638    1.53121    0.03887
H   -0.54250    1.94719   -0.55924
H   -1.42829    2.10063    0.97341
H   -2.30959    1.63212   -0.50558
H   -1.08694   -1.34541   -1.97767
H    0.66449   -1.07453   -2.27198
H   -0.44027    0.32127   -2.21502
****
C    1.49350    0.18120   -0.37275
O    1.85084    1.30923    0.07829
O    1.98910   -0.46545   -1.33773
C    0.30748   -0.49700    0.37363
C   -1.25681    0.44808   -1.42492
O    0.56613   -1.31533    1.25406
C   -1.20502   -0.09797    0.04581
O   -2.09542   -1.07992    0.24945
C   -1.46361    1.13938    0.99992
H   -2.48366    1.50237    0.79392
H   -0.73924    1.95759    0.87115
H   -1.42786    0.78455    2.03837
H   -1.05888   -0.37493   -2.12299
H   -0.54186    1.25972   -1.62866
H   -2.28030    0.81272   -1.60269
$end

$rem
jobtype         fsm
fsm_ngrad       3
fsm_nnode       12
fsm_mode     2
fsm_opt_mode 2
method          b3lyp
basis           6-31+G(d)
--------------------------------------------------------------

   18    -495.0016484082      2.08E-09 Convergence criterion met
 Total energy in the final basis set = -495.0016484082
   18    -495.0016484056      2.08E-09 Convergence criterion met
 Total energy in the final basis set = -495.0016484056
   18    -495.0184455851      3.09E-09 Convergence criterion met
 Total energy in the final basis set = -495.0184455851
   17    -494.9912873494      9.34E-09 Convergence criterion met
 Total energy in the final basis set = -494.9912873494
   17    -494.9937530752      8.10E-09 Convergence criterion met
 Total energy in the final basis set = -494.9937530752
   17    -495.0059803243      9.77E-09 Convergence criterion met
 Total energy in the final basis set = -495.0059803243
   18    -495.0101852547      3.14E-09 Convergence criterion met
 Total energy in the final basis set = -495.0101852547
   18    -494.9772793418      2.74E-09 Convergence criterion met
 Total energy in the final basis set = -494.9613603362
   17    -494.9615096055      7.40E-09 Convergence criterion met
 Total energy in the final basis set = -494.9615096055
   17    -494.9613759530      7.36E-09 Convergence criterion met
 Total energy in the final basis set = -494.9613759530
   17    -494.9614941737      7.41E-09 Convergence criterion met
 Total energy in the final basis set = -494.9614941737
   17    -494.9613902985      7.35E-09 Convergence criterion met
 Total energy in the final basis set = -494.9613902985
   17    -494.9614799882      7.41E-09 Convergence criterion met
 Total energy in the final basis set = -494.9614799882
   17    -494.9614086484      7.35E-09 Convergence criterion met
 Total energy in the final basis set = -494.9614086484
   17    -494.9614618728      7.42E-09 Convergence criterion met
 Total energy in the final basis set = -494.9614618728

                    Orbital Energies (a.u.)
 --------------------------------------------------------------

 Alpha MOs
 -- Occupied --
-18.817 -18.789 -18.776 -18.775  -9.968  -9.960  -9.942  -9.922
 -9.883  -0.714  -0.703  -0.658  -0.613  -0.463  -0.395  -0.330
 -0.242  -0.186  -0.163  -0.144  -0.135  -0.108  -0.104  -0.102
 -0.082  -0.081  -0.069  -0.057  -0.004   0.037   0.052   0.065
  0.092   0.100   0.114

          Ground-State Mulliken Net Atomic Charges

     Atom                 Charge (a.u.)
  ----------------------------------------
      1 C                     0.309600
      2 O                    -0.616893
      3 O                    -0.587359
      4 C                     0.170381
      5 C                    -0.918280
      6 O                    -0.536994
      7 C                     0.459081
      8 O                    -0.549523
      9 C                    -0.856616
     10 H                     0.191620
     11 H                     0.196176
     12 H                     0.182742
     13 H                     0.190409
     14 H                     0.221440
     15 H                     0.144216
  ----------------------------------------
  Sum of atomic charges =    -2.000000

                    Cartesian Multipole Moments
 -----------------------------------------------------------------
    Charge (ESU x 10^10)
                -9.6064
    Dipole Moment (Debye)
         X      -7.3839      Y       5.9246      Z      -5.4751
       Tot      10.9362
    Quadrupole Moments (Debye-Ang)
        XX    -105.8335     XY      -5.7638     YY     -77.2474
        XZ      -6.3258     YZ       7.6428     ZZ     -83.2748

             Standard Nuclear Orientation (Angstroms)
    I     Atom           X                Y                Z
 ----------------------------------------------------------------
    1      C       1.8376317865    -0.0251907970     0.5847410834
    2      O       2.2813200424     0.5878074591    -0.4212629161
    3      O       2.3502563823    -0.0069787402     1.7464324877
    4      C       0.4546149776    -0.8519337202     0.5967653576
    5      C      -0.0734859787    -0.8064575793    -1.4014020777
    6      O       0.5011774374    -1.9990424054     1.1210889149
    7      C      -0.8861521150    -0.1791794711     0.5233990590
    8      O      -1.9458379665    -0.7850858128     0.8444474865
    9      C      -1.0256255239     1.3520617553     0.3658816937
   10      H      -0.7274703615     1.7501174407    -0.6110111813
   11      H      -0.4273020332     1.8682013630     1.1313092192
   12      H      -2.0877802961     1.5767234800     0.5346442946
   13      H      -0.5790335754    -1.7688681714    -1.5205764681
   14      H       0.9470623593    -0.8053957728    -1.7959528150
   15      H      -0.6420176005    -0.0154934723    -1.9181876907
 ----------------------------------------------------------------

 Total job time:  3078.70s(wall), 3043.60s(cpu)
        *  Thank you very much for using Q-Chem.  Have a nice day.  *
