 Q-Chem 4.3, Q-Chem, Inc., Pleasanton, CA (2015)
 Q-Chem 4.3.0 for Intel X86 Linux

User input:
--------------------------------------------------------------
$comment
Title
$end

$molecule
-2 1
C         3.500        -1.217          2.652
O         4.587        -1.422          2.054
O         3.267        -1.510          3.887
C         2.344        -0.610          1.814
C         1.955        -2.138          0.344
O         1.194        -0.348          2.371
C         2.463        -0.100          0.425
O         1.439         0.483         -0.147
C         3.838         0.002         -0.108
H         3.864         0.108         -1.197
H         4.649        -0.717          0.201
H         4.216         1.057          0.115
H         1.074        -2.041         -0.411
H         1.672        -2.674          1.292
H         2.942        -2.468         -0.050
$end

$solvent
CavityRadius    30
Dielectric     78.39
$end

$molecule
READ
$end

$rem
jobtype          FREQ
exchange         b3lyp
basis            6-31+G(d)
pdb_print 2
SOLVENT_METHOD ONSAGER
NBO TRUE
$end

--------------------------------------------------------------

   17    -494.9800471656      8.10E-09 Convergence criterion met
 Total energy in the final basis set = -494.9800471656
 Frequency:      -305.52                 -75.75                 140.64
 Force Cnst:      0.3342                 0.0295                 0.0741
 Red. Mass:       6.0771                 8.7156                 6.3548
 IR Intens:      130.909                  0.240                  1.066
 Frequency:       199.85                 252.43                 296.96
 Force Cnst:      0.0499                 0.1036                 0.2507
 Red. Mass:       2.1221                 2.7584                 4.8261
 IR Intens:        9.233                 10.049                 46.743
 Frequency:       337.70                 391.65                 415.29
 Force Cnst:      0.1787                 0.3069                 0.8424
 Red. Mass:       2.6596                 3.3963                 8.2899
 IR Intens:        5.877                 10.693                  1.116
 Frequency:       437.92                 475.79                 535.69
 Force Cnst:      0.8189                 0.2032                 0.5665
 Red. Mass:       7.2479                 1.5236                 3.3507
 IR Intens:       15.574                 28.753                 59.922
 Frequency:       547.01                 559.78                 694.26
 Force Cnst:      0.4270                 0.8814                 1.5107
 Red. Mass:       2.4219                 4.7741                 5.3198
 IR Intens:       57.976                  5.814                 23.889
 Frequency:       782.43                 809.90                 891.29
 Force Cnst:      2.6332                 2.5138                 0.5831
 Red. Mass:       7.3004                 6.5045                 1.2458
 IR Intens:       52.525                 23.975                 40.799
 Frequency:       946.71                 998.04                1057.16
 Force Cnst:      0.7843                 0.9331                 2.4081
 Red. Mass:       1.4853                 1.5899                 3.6572
 IR Intens:       28.356                 26.528                 84.968
 Frequency:      1094.08                1130.32                1271.23
 Force Cnst:      0.9871                 0.8950                 5.0367
 Red. Mass:       1.3995                 1.1890                 5.2899
 IR Intens:       29.591                  8.113                119.485
 Frequency:      1326.43                1352.30                1390.03
 Force Cnst:      6.8597                 7.8321                 7.4975
 Red. Mass:       6.6174                 7.2692                 6.5859
 IR Intens:       51.204                342.180                467.675
 Frequency:      1464.05                1477.97                1498.13
 Force Cnst:      1.3758                 1.8401                 1.4980
 Red. Mass:       1.0894                 1.4298                 1.1328
 IR Intens:        1.582                 82.597                  9.136
 Frequency:      1509.14                1540.03                1601.83
 Force Cnst:      1.4738                 1.4999                13.2374
 Red. Mass:       1.0983                 1.0733                 8.7563
 IR Intens:        0.234                 17.071                417.669
 Frequency:      2512.78                2639.35                2827.47
 Force Cnst:      3.9399                 4.3905                 5.0902
 Red. Mass:       1.0591                 1.0697                 1.0807
 IR Intens:       56.357                151.803                 46.751
 Frequency:      2828.50                2956.71                3053.68
 Force Cnst:      5.0644                 5.6620                 5.9229
 Red. Mass:       1.0744                 1.0993                 1.0780
 IR Intens:       32.723                 65.774                218.405
 Total job time:  2997.21s(wall), 2997.31s(cpu)
        *  Thank you very much for using Q-Chem.  Have a nice day.  *
 Q-Chem 4.3, Q-Chem, Inc., Pleasanton, CA (2015)
 Q-Chem 4.3.0 for Intel X86 Linux

User input:
--------------------------------------------------------------

$molecule
READ
$end

$solvent
CavityRadius    30
Dielectric     78.39
$end

$rem
SOLVENT_METHOD ONSAGER
jobtype          TS
exchange         b3lyp
basis            6-31+G(d)
geom_opt_maxcyc  100
$end

--------------------------------------------------------------

   17    -494.9800471656      8.10E-09 Convergence criterion met
 Total energy in the final basis set = -494.9800471656
   13    -494.9860804528      7.04E-09 Convergence criterion met
 Total energy in the final basis set = -494.9860804528
   14    -495.0033264770      5.92E-09 Convergence criterion met
 Total energy in the final basis set = -495.0033264770
   13    -495.0074605485      8.09E-09 Convergence criterion met
 Total energy in the final basis set = -495.0074605485
   14    -495.0109561824      5.54E-09 Convergence criterion met
 Total energy in the final basis set = -495.0109561824
   14    -495.0139589903      3.97E-09 Convergence criterion met
 Total energy in the final basis set = -495.0139589903
   13    -495.0155255109      5.48E-09 Convergence criterion met
   12    -495.0450290062      2.99E-09 Convergence criterion met
 Total energy in the final basis set = -495.0450290062
   12    -495.0450045295      4.30E-09 Convergence criterion met
 Total energy in the final basis set = -495.0450045295
   12    -495.0450074928      6.98E-09 Convergence criterion met
 Total energy in the final basis set = -495.0450074928
   13    -495.0450076565      2.96E-09 Convergence criterion met
 Total energy in the final basis set = -495.0450076565
   11    -495.0450116831      6.26E-09 Convergence criterion met
 Total energy in the final basis set = -495.0450116831
   11    -495.0450119095      4.03E-09 Convergence criterion met
 Total energy in the final basis set = -495.0450119095
 Final energy is   -495.045011909483
 **  OPTIMIZATION CONVERGED  **
        *  Thank you very much for using Q-Chem.  Have a nice day.  *
 Q-Chem 4.3, Q-Chem, Inc., Pleasanton, CA (2015)
 Q-Chem 4.3.0 for Intel X86 Linux

User input:
--------------------------------------------------------------

$solvent
CavityRadius    30
Dielectric     78.39
$end

$molecule
READ
$end

$rem
jobtype          FREQ
exchange         b3lyp
basis            6-31+G(d)
pdb_print 2
NBO TRUE
SOLVENT_METHOD ONSAGER
$end
--------------------------------------------------------------

             Standard Nuclear Orientation (Angstroms)
    I     Atom           X                Y                Z
 ----------------------------------------------------------------
    1      C       1.6151561323     0.2521986591    -0.0005921989
    2      O       1.4536179156     1.5073989588     0.0003743503
    3      O       2.7062719293    -0.3764104319    -0.0015524652
    4      C       0.2812899790    -0.6695372113    -0.0011530476
    5      C      -1.2943791375     0.8689147038    -1.2691486241
    6      O       0.4356181701    -1.8799840779    -0.0011088552
    7      C      -1.2011803825    -0.0631104670    -0.0009825916
    8      O      -2.1701363629    -0.9884340839    -0.0018633505
    9      C      -1.2893881911     0.8619369144     1.2742339816
   10      H      -2.2927797511     1.3171644214     1.2728877037
   11      H      -0.5167737973     1.6403374926     1.3062829940
   12      H      -1.2165065006     0.2280130995     2.1706958611
   13      H      -2.2989735924     1.3211657789    -1.2625129946
   14      H      -1.2231416382     0.2411997400    -2.1702117168
   15      H      -0.5237883383     1.6491409536    -1.2980843995
 ----------------------------------------------------------------

   17    -495.0450890856      5.92E-09 Convergence criterion met
 Total energy in the final basis set = -495.0450890856

                    Orbital Energies (a.u.)
 --------------------------------------------------------------

 Alpha MOs
 -- Occupied --
-18.844 -18.801 -18.799 -18.738  -9.975  -9.957  -9.928  -9.886
 -9.886  -0.740  -0.714  -0.636  -0.612  -0.442  -0.392  -0.323
 -0.240  -0.173  -0.150  -0.145  -0.131  -0.117  -0.114  -0.105
 -0.088  -0.072  -0.060  -0.042  -0.031   0.015   0.047   0.061
  0.080   0.116   0.122

          Ground-State Mulliken Net Atomic Charges

     Atom                 Charge (a.u.)
  ----------------------------------------
      1 C                     0.336453
      2 O                    -0.605675
      3 O                    -0.622566
      4 C                     0.278262
      5 C                    -0.642800
      6 O                    -0.421187
      7 C                    -0.121214
      8 O                    -0.665998
      9 C                    -0.641814
     10 H                     0.159604
     11 H                     0.218239
     12 H                     0.175550
     13 H                     0.159894
     14 H                     0.175189
     15 H                     0.218062
  ----------------------------------------
  Sum of atomic charges =    -2.000000

                    Cartesian Multipole Moments
 -----------------------------------------------------------------
    Charge (ESU x 10^10)
                -9.6064
    Dipole Moment (Debye)
         X      -0.3753      Y       2.2454      Z       0.0012
       Tot       2.2765
    Quadrupole Moments (Debye-Ang)
        XX    -111.7716     XY      -8.5077     YY     -83.4187
        XZ       0.0042     YZ      -0.0187     ZZ     -64.2675

 Frequency:       -62.99                  86.03                 199.23
 Force Cnst:      0.0296                 0.0244                 0.0367
 Red. Mass:      12.6525                 5.5882                 1.5693
 IR Intens:        0.765                  1.694                  3.367
 Frequency:       201.60                 248.24                 251.29
 Force Cnst:      0.1271                 0.0577                 0.0450
 Red. Mass:       5.3077                 1.5886                 1.2100
 IR Intens:        7.985                  3.537                  0.905
 Frequency:       289.39                 331.09                 358.00
 Force Cnst:      0.1514                 0.5165                 0.3123
 Red. Mass:       3.0679                 7.9967                 4.1355
 IR Intens:        0.026                  1.367                  1.712
 Frequency:       401.52                 436.08                 525.66
 Force Cnst:      0.5362                 0.4964                 0.6216
 Red. Mass:       5.6446                 4.4306                 3.8181
 IR Intens:        1.211                 16.168                  4.393
 Frequency:       536.70                 601.90                 766.03
 Force Cnst:      1.0935                 1.0256                 4.5233
 Red. Mass:       6.4430                 4.8048                13.0832
 IR Intens:        6.077                 14.571                 76.891
 Frequency:       787.75                 810.93                 857.95
 Force Cnst:      1.9326                 1.1968                 0.8915
 Red. Mass:       5.2857                 3.0890                 2.0557
 IR Intens:        4.717                  1.891                 30.879
 Frequency:       937.83                 989.75                1030.13
 Force Cnst:      3.5610                 0.7804                 1.1793
 Red. Mass:       6.8719                 1.3522                 1.8862
 IR Intens:       55.457                  5.083                 58.337
 Frequency:      1112.43                1160.53                1244.61
 Force Cnst:      1.8541                 1.7051                 4.4559
 Red. Mass:       2.5430                 2.1488                 4.8822
 IR Intens:       55.720                  8.189                214.135
 Frequency:      1328.55                1332.28                1352.68
 Force Cnst:      9.4034                 1.2580                 1.3832
 Red. Mass:       9.0423                 1.2029                 1.2830
 IR Intens:      127.465                 23.156                 58.403
 Frequency:      1482.98                1495.70                1500.59
 Force Cnst:      1.3609                 1.3953                 1.4035
 Red. Mass:       1.0503                 1.0586                 1.0579
 IR Intens:        0.348                 13.955                  1.335
 Frequency:      1516.44                1645.04                1735.33
 Force Cnst:      1.4306                18.1809                23.3023
 Red. Mass:       1.0559                11.4029                13.1336
 IR Intens:        6.479                507.837                274.010
 Frequency:      2980.32                2988.21                3038.57
 Force Cnst:      5.4224                 5.4480                 5.9767
 Red. Mass:       1.0361                 1.0355                 1.0987
 IR Intens:       91.511                148.482                 72.931
 Frequency:      3045.01                3089.48                3096.55
 Force Cnst:      5.9926                 6.1874                 6.2092
 Red. Mass:       1.0969                 1.1002                 1.0991
 IR Intens:      101.244                  3.779                 88.411

 STANDARD THERMODYNAMIC QUANTITIES AT   298.15 K  AND     1.00 ATM

   This Molecule has  1 Imaginary Frequencies
   Zero point vibrational energy:       65.464 kcal/mol

   Atom    1 Element C  Has Mass   12.00000
   Atom    2 Element O  Has Mass   15.99491
   Atom    3 Element O  Has Mass   15.99491
   Atom    4 Element C  Has Mass   12.00000
   Atom    5 Element C  Has Mass   12.00000
   Atom    6 Element O  Has Mass   15.99491
   Atom    7 Element C  Has Mass   12.00000
   Atom    8 Element O  Has Mass   15.99491
   Atom    9 Element C  Has Mass   12.00000
   Atom   10 Element H  Has Mass    1.00783
   Atom   11 Element H  Has Mass    1.00783
   Atom   12 Element H  Has Mass    1.00783
   Atom   13 Element H  Has Mass    1.00783
   Atom   14 Element H  Has Mass    1.00783
   Atom   15 Element H  Has Mass    1.00783
   Molecular Mass:   130.026620 amu
   Principal axes and moments of inertia in amu*Bohr^2:
                             1           2           3
    Eigenvalues --      708.02727  1385.46047  1700.91429
          X               0.99896    -0.04566     0.00001
          Y               0.04566     0.99896    -0.00019
          Z               0.00000     0.00019     1.00000
   Rotational Symmetry Number is   1
   The Molecule is an Asymmetric Top
   Translational Enthalpy:        0.889 kcal/mol
   Rotational Enthalpy:           0.889 kcal/mol
   Vibrational Enthalpy:         69.046 kcal/mol
   gas constant (RT):             0.592 kcal/mol
   Translational Entropy:        40.501  cal/mol.K
   Rotational Entropy:           28.902  cal/mol.K
   Vibrational Entropy:          20.135  cal/mol.K

   Total Enthalpy:               71.416 kcal/mol
   Total Entropy:                89.537  cal/mol.K

 Total job time:  2952.22s(wall), 2952.39s(cpu)
        *  Thank you very much for using Q-Chem.  Have a nice day.  *
