 Q-Chem 4.3, Q-Chem, Inc., Pleasanton, CA (2015)
 Q-Chem 4.3.0 for Intel X86 Linux

User input:
--------------------------------------------------------------
$molecule
-2 1
C        3.29600       -0.86600        2.39400
O        4.50600       -1.03900        2.12000
O        2.92600       -0.95400        3.64500
C        2.15900       -0.62100        1.29800
C        1.96600       -1.76700        0.31200
O        0.94700       -0.47600        2.01100
C        2.44300        0.67600        0.56700
O        1.59900        1.61900        0.54700
C        3.71800        0.81000       -0.11300
H        4.08300       -0.17800       -0.30800
H        4.36500        1.05500        0.71800
H        3.63500        1.42000       -1.07500
H        1.31600       -1.57200       -0.59100
H        1.23900       -2.36100        0.98400
H        2.92900       -2.26400        0.05400
$end

$rem
EXCHANGE         B3LYP
BASIS            6-31+G(d)
PRINT_ORBITALS   true
MOLDEN_FORMAT    true
--------------------------------------------------------------

             Standard Nuclear Orientation (Angstroms)
    I     Atom           X                Y                Z
 ----------------------------------------------------------------
    1      C       1.2830026172     0.3480087442     0.1757525102
    2      O       1.4934056190     1.5315674351    -0.1764184740
    3      O       2.1928813064    -0.2544305993     0.8960528699
    4      C       0.0033976121    -0.5007857955    -0.2671570292
    5      C      -0.1235337544    -0.7266461583    -1.7690346956
    6      O       0.1441290242    -1.7719361619     0.3350965849
    7      C      -1.2456791660     0.1558269821     0.2859187909
    8      O      -2.0389819342    -0.4731875828     1.0455215787
    9      C      -1.5093668175     1.5352694735    -0.0795784529
   10      H      -0.9793072782     1.7331128758    -0.9891326695
   11      H      -0.8498404139     2.0541798246     0.6022954141
   12      H      -2.6255809964     1.7483281599    -0.1940551011
   13      H      -1.0985184199    -1.1507776935    -2.1504155327
   14      H       0.5493344011    -1.6645924767    -1.7903454717
   15      H       0.2255176351     0.1536051048    -2.3557738550
 ----------------------------------------------------------------

   12    -494.9413744294      6.74E-06 Convergence criterion met
 Total energy in the final basis set = -494.9413744294

                    Orbital Energies (a.u.)
 --------------------------------------------------------------

 Alpha MOs
 -- Occupied --
-18.848 -18.780 -18.757 -18.707  -9.976  -9.948  -9.920  -9.914
 -9.903  -0.723  -0.695  -0.587  -0.565  -0.493  -0.417  -0.328
 -0.238  -0.194  -0.191  -0.148  -0.145  -0.131  -0.115  -0.098
 -0.070  -0.067  -0.051  -0.040   0.002   0.047   0.069   0.083
  0.109   0.145   0.156

          Ground-State Mulliken Net Atomic Charges

     Atom                 Charge (a.u.)
  ----------------------------------------
      1 C                     0.265884
      2 O                    -0.603774
      3 O                    -0.592670
      4 C                    -0.243555
      5 C                    -0.617308
      6 O                    -0.619195
      7 C                     0.281042
      8 O                    -0.468656
      9 C                    -0.592332
     10 H                     0.241893
     11 H                     0.252793
     12 H                     0.150522
     13 H                     0.156923
     14 H                     0.233877
     15 H                     0.154556
  ----------------------------------------
  Sum of atomic charges =    -2.000000

                    Cartesian Multipole Moments
 -----------------------------------------------------------------
    Charge (ESU x 10^10)
                -9.6064
    Dipole Moment (Debye)
         X      -5.3440      Y       4.2534      Z      -3.6358
       Tot       7.7375
    Quadrupole Moments (Debye-Ang)
        XX     -94.0858     XY      -5.8388     YY     -86.2362
        XZ      -1.1225     YZ       5.4759     ZZ     -72.2138

 Total job time:  173.23s(wall), 178.40s(cpu)
        *  Thank you very much for using Q-Chem.  Have a nice day.  *
