 Q-Chem 4.3, Q-Chem, Inc., Pleasanton, CA (2015)
 Q-Chem 4.3.0 for Intel X86 Linux

User input:
--------------------------------------------------------------
$rem
JOBTYPE Opt
EXCHANGE B3LYP
BASIS 6-31+G(d)
GUI=2
SOLVENT_METHOD ONSAGER
pdb_print 2
NBO TRUE
$end

$comment
reactantstate
$end

$solvent
CavityRadius    30
Dielectric     78.39
$end

$molecule
-2 1
C        3.29600       -0.86600        2.39400
O        4.50600       -1.03900        2.12000
O        2.92600       -0.95400        3.64500
C        2.15900       -0.62100        1.29800
C        1.96600       -1.76700        0.31200
O        0.94700       -0.47600        2.01100
C        2.44300        0.67600        0.56700
O        1.59900        1.61900        0.54700
C        3.71800        0.81000       -0.11300
H        4.08300       -0.17800       -0.30800
H        4.36500        1.05500        0.71800
H        3.63500        1.42000       -1.07500
H        1.31600       -1.57200       -0.59100
H        1.23900       -2.36100        0.98400
H        2.92900       -2.26400        0.05400
$end

--------------------------------------------------------------

   18    -494.9762303884      5.30E-09 Convergence criterion met
 Total energy in the final basis set = -494.9762303884
   14    -495.0047772451      7.60E-09 Convergence criterion met
 Total energy in the final basis set = -495.0047772451
   14    -495.0206937571      3.69E-09 Convergence criterion met
 Total energy in the final basis set = -495.0206937571
   14    -495.0255391973      3.62E-09 Convergence criterion met
 Total energy in the final basis set = -495.0255391973
   14    -495.0279598840      3.21E-09 Convergence criterion met
 Total energy in the final basis set = -495.0279598840
   13    -495.0288134105      7.96E-09 Convergence criterion met
 Total energy in the final basis set = -495.0288134105
   13    -495.0293426544      6.08E-09 Convergence criterion met
 Total energy in the final basis set = -495.0293426544
   13    -495.0295894037      6.44E-09 Convergence criterion met
   12    -495.0357922113      4.43E-09 Convergence criterion met
 Total energy in the final basis set = -495.0357922113
   12    -495.0360409869      9.51E-09 Convergence criterion met
 Total energy in the final basis set = -495.0360409869
   12    -495.0363204073      5.61E-09 Convergence criterion met
 Total energy in the final basis set = -495.0363204073
   13    -495.0364531678      4.89E-09 Convergence criterion met
 Total energy in the final basis set = -495.0364531678
   12    -495.0364854654      7.73E-09 Convergence criterion met
 Total energy in the final basis set = -495.0364854654
   11    -495.0364922594      6.43E-09 Convergence criterion met
 Total energy in the final basis set = -495.0364922594

             Standard Nuclear Orientation (Angstroms)
    I     Atom           X                Y                Z
 ----------------------------------------------------------------
    1      C       1.3555396959     0.2438421537     0.0548517482
    2      O       2.2728550856     0.2759438949    -0.8170284590
    3      O       1.3494771215     0.8691684778     1.1618525319
    4      C       0.0802819507    -0.7068177003    -0.2252565594
    5      C      -0.2330522261    -0.6767471199    -1.7875929389
    6      O       0.2500996832    -1.9613944151     0.1946217432
    7      C      -1.1495177625     0.0421521688     0.3976418118
    8      O      -2.0053483810    -0.4810965941     1.1068493350
    9      C      -1.3563766057     1.5312122294     0.0388727936
   10      H      -0.5425017549     1.9471902151    -0.5592426965
   11      H      -1.4282921466     2.1006320637     0.9734121130
   12      H      -2.3095911605     1.6321237873    -0.5055791953
   13      H      -1.0869361986    -1.3454092034    -1.9776730590
   14      H       0.6644886038    -1.0745270595    -2.2719815261
   15      H      -0.4402664702     0.3212692339    -2.2150211756
 ----------------------------------------------------------------

   10    -495.0364931645      4.20E-09 Convergence criterion met
 Total energy in the final basis set = -495.0364931645
 Final energy is   -495.036493164457
 **  OPTIMIZATION CONVERGED  **

                    Orbital Energies (a.u.)
 --------------------------------------------------------------

 Alpha MOs
 -- Occupied --
-18.853 -18.778 -18.777 -18.731  -9.976  -9.948  -9.920  -9.915
 -9.883  -0.743  -0.697  -0.610  -0.602  -0.466  -0.412  -0.319
 -0.230  -0.183  -0.165  -0.151  -0.140  -0.126  -0.112  -0.094
 -0.079  -0.070  -0.060  -0.054  -0.025   0.039   0.058   0.069
  0.088   0.126   0.139

          Ground-State Mulliken Net Atomic Charges

     Atom                 Charge (a.u.)
  ----------------------------------------
      1 C                     0.343590
      2 O                    -0.629496
      3 O                    -0.597261
      4 C                    -0.227286
      5 C                    -0.509670
      6 O                    -0.654459
      7 C                     0.297422
      8 O                    -0.478964
      9 C                    -0.682514
     10 H                     0.227551
     11 H                     0.201669
     12 H                     0.165909
     13 H                     0.171657
     14 H                     0.226045
     15 H                     0.145806
  ----------------------------------------
  Sum of atomic charges =    -2.000000

                    Cartesian Multipole Moments
 -----------------------------------------------------------------
    Charge (ESU x 10^10)
                -9.6064
    Dipole Moment (Debye)
         X      -4.6968      Y       3.5725      Z      -1.9472
       Tot       6.2141
    Quadrupole Moments (Debye-Ang)
        XX     -92.2651     XY      -6.3475     YY     -82.1120
        XZ       5.0699     YZ      -0.7466     ZZ     -76.4613

 Total job time:  10687.94s(wall), 10697.66s(cpu)
        *  Thank you very much for using Q-Chem.  Have a nice day.  *
