 Q-Chem 4.3, Q-Chem, Inc., Pleasanton, CA (2015)
 Q-Chem 4.3.0 for Intel X86 Linux

User input:
--------------------------------------------------------------
$comment
Title
$end

$molecule
-2 1
C        3.457         -1.303          2.639
O        4.585         -1.568          2.152
O        3.156         -1.669          3.838
C        2.431         -0.611          1.760
O        2.048         -1.964          0.324
C        1.323         -0.391          2.447
O        2.490          0.068          0.516
C        1.481          0.694          0.023
H        3.695          0.184         -0.328
H        3.485         -0.146         -1.481
H        4.489         -0.484          0.104
C        4.132          1.211         -0.539
H        1.160         -1.639         -0.299
H        1.810         -2.780          1.053
H        3.012         -2.165         -0.257
$end

$rem
JOBTYPE FREQ
EXCHANGE HF
BASIS 6-31+G(d)
GUI=2
$end

--------------------------------------------------------------

   32    -491.1716884764      8.95E-09 Convergence criterion met
 Total energy in the final basis set = -491.1716884764
 Frequency:     -1828.64               -1670.78               -1115.40
 Force Cnst:      2.1031                 1.7597                 0.8039
 Red. Mass:       1.0674                 1.0699                 1.0967
 IR Intens:      698.613               2057.388               1010.726
 Frequency:      -918.55                -301.25                -262.76
 Force Cnst:      0.5299                 0.1977                 0.0944
 Red. Mass:       1.0660                 3.6980                 2.3208
 IR Intens:      270.316                 13.111                 26.734
 Frequency:      -100.12                 -79.97                  83.93
 Force Cnst:      0.0369                 0.0231                 0.0280
 Red. Mass:       6.2536                 6.1323                 6.7560
 IR Intens:       19.727                 29.091                  0.657
 Frequency:       151.16                 229.34                 281.10
 Force Cnst:      0.0660                 0.0938                 0.2080
 Red. Mass:       4.9046                 3.0271                 4.4679
 IR Intens:       32.973                 20.286                106.828
 Frequency:       293.30                 335.50                 409.38
 Force Cnst:      0.3565                 0.2252                 0.4186
 Red. Mass:       7.0345                 3.3960                 4.2395
 IR Intens:       22.030                  3.724                 88.562
 Frequency:       442.40                 537.94                 568.37
 Force Cnst:      0.5638                 0.6703                 0.7228
 Red. Mass:       4.8894                 3.9315                 3.7974
 IR Intens:        2.780                 15.317                 66.079
 Frequency:       638.39                 749.25                 817.29
 Force Cnst:      1.1837                 1.4196                 1.1443
 Red. Mass:       4.9299                 4.2922                 2.9076
 IR Intens:        9.844                231.628                607.071
 Frequency:       882.26                 908.78                 940.61
 Force Cnst:      0.7638                 1.7963                 1.1266
 Red. Mass:       1.6654                 3.6916                 2.1612
 IR Intens:       36.379                479.117                270.300
 Frequency:       959.25                1056.24                1118.06
 Force Cnst:      0.6469                 2.0731                 0.9056
 Red. Mass:       1.1932                 3.1539                 1.2296
 IR Intens:      583.379                 77.806                272.920
 Frequency:      1152.00                1252.51                1296.85
 Force Cnst:      1.1702                 1.1367                 1.4415
 Red. Mass:       1.4966                 1.2297                 1.4548
 IR Intens:      119.559                339.787                153.452
 Frequency:      1346.97                1357.52                1488.21
 Force Cnst:      3.4643                 1.4808                 1.4709
 Red. Mass:       3.2408                 1.3638                 1.1272
 IR Intens:      444.271                108.436                 43.564
 Frequency:      1581.34                1675.26                1772.18
 Force Cnst:     12.4713                 1.8386                16.3878
 Red. Mass:       8.4647                 1.1119                 8.8564
 IR Intens:      551.068                918.153                 33.802
 Frequency:      1821.44                2031.95                2488.56
 Force Cnst:      2.2044                 2.6792                 3.8532
 Red. Mass:       1.1278                 1.1013                 1.0560
 IR Intens:       57.839                320.713                245.923
 Total job time:  332.92s(wall), 321.82s(cpu)
        *  Thank you very much for using Q-Chem.  Have a nice day.  *
 Q-Chem 4.3, Q-Chem, Inc., Pleasanton, CA (2015)
 Q-Chem 4.3.0 for Intel X86 Linux

User input:
--------------------------------------------------------------

$molecule
READ
$end

$rem
jobtype          TS
exchange         HF
basis            6-31+G(d)
geom_opt_hessian READ
geom_opt_maxcyc  100
$end

--------------------------------------------------------------

   32    -491.1716884775      8.95E-09 Convergence criterion met
 Total energy in the final basis set = -491.1716884775
   23    -491.2352563107      7.99E-09 Convergence criterion met
 Total energy in the final basis set = -491.2352563107
   22    -491.2847893891      8.20E-09 Convergence criterion met
 Total energy in the final basis set = -491.2847893891
   21    -491.3192569497      9.93E-09 Convergence criterion met
 Total energy in the final basis set = -491.3192569497
   23    -491.3402927562      6.66E-09 Convergence criterion met
 Total energy in the final basis set = -491.3402927562
   26    -491.3499318852      5.43E-09 Convergence criterion met
 Total energy in the final basis set = -491.3499318852
   26    -491.3559230527      3.01E-09 Convergence criterion met
 Total energy in the final basis set = -491.9185956897
   15    -491.9186391603      6.23E-09 Convergence criterion met
 Total energy in the final basis set = -491.9186391603
   15    -491.9186428341      7.15E-09 Convergence criterion met
 Total energy in the final basis set = -491.9186428341
   15    -491.9183226632      9.53E-09 Convergence criterion met
 Total energy in the final basis set = -491.9183226632
   15    -491.9184220449      7.35E-09 Convergence criterion met
 Total energy in the final basis set = -491.9184220449
   16    -491.9181827320      5.11E-09 Convergence criterion met
 Total energy in the final basis set = -491.9181827320
   14    -491.9182355481      9.50E-09 Convergence criterion met
 Total energy in the final basis set = -491.9182355481
 Q-Chem 4.3, Q-Chem, Inc., Pleasanton, CA (2015)
 Q-Chem 4.3.0 for Intel X86 Linux

User input:
--------------------------------------------------------------

$molecule
READ
$end

$rem
jobtype          FREQ
exchange         HF
basis            6-31+G(d)
pdb_print 2
$end
--------------------------------------------------------------

             Standard Nuclear Orientation (Angstroms)
    I     Atom           X                Y                Z
 ----------------------------------------------------------------
    1      C       1.7299999887     0.7581215490     0.2945635581
    2      O       0.9857619763     1.5974088643    -0.2108862263
    3      O       2.8894702878     0.8178906717     0.6969621710
    4      C       1.0810203001    -0.6689698789     0.3539212047
    5      O      -0.8819004584     0.0191457798    -2.1992900285
    6      C       1.8843631686    -1.6731834231     0.0851511818
    7      O      -0.2828355619    -0.6819144469     0.4899448735
    8      C      -1.0065397412    -1.7320315673     0.1966399603
    9      H      -3.6420406115     0.2529411584     1.1367170759
   10      H      -5.2602588590     0.1005059177     0.3580444346
   11      H      -4.3972723738     1.6854967792     0.3739470989
   12      C      -4.6075045399     0.7689154716     0.9694520229
   13      H      -2.0147048876    -1.3567624542     0.3724924229
   14      H       0.0491288279    -0.0767621580    -2.3637370286
   15      H      -0.9068571049     0.6572208986    -1.4896778885
 ----------------------------------------------------------------

   19    -491.9181277407      4.74E-09 Convergence criterion met
 Total energy in the final basis set = -491.9181277407

                    Orbital Energies (a.u.)
 --------------------------------------------------------------

 Alpha MOs
 -- Occupied --
-20.440 -20.347 -20.282 -20.280 -11.128 -11.093 -11.080 -11.078
-10.875  -1.261  -1.162  -1.129  -1.063  -0.845  -0.700  -0.556
 -0.552  -0.492  -0.458  -0.441  -0.426  -0.400  -0.375  -0.360
 -0.340  -0.279  -0.258  -0.197  -0.196  -0.194  -0.174  -0.169
 -0.158  -0.152   0.046

          Ground-State Mulliken Net Atomic Charges

     Atom                 Charge (a.u.)
  ----------------------------------------
      1 C                     0.769946
      2 O                    -0.727382
      3 O                    -0.711346
      4 C                    -0.016614
      5 O                    -1.038400
      6 C                    -0.125243
      7 O                    -0.343999
      8 C                    -0.077058
      9 H                     0.084765
     10 H                     0.068741
     11 H                     0.085863
     12 C                    -1.243499
     13 H                     0.185216
     14 H                     0.515467
     15 H                     0.573543
  ----------------------------------------
  Sum of atomic charges =    -2.000000

                    Cartesian Multipole Moments
 -----------------------------------------------------------------
    Charge (ESU x 10^10)
                -9.6064
    Dipole Moment (Debye)
         X      13.9814      Y      -4.9026      Z      -5.4343
       Tot      15.7813
    Quadrupole Moments (Debye-Ang)
        XX    -202.7427     XY      16.3800     YY     -86.6860
        XZ      22.7681     YZ      -8.8360     ZZ     -80.6066

 Frequency:       -83.89                  36.44                  48.82
 Force Cnst:      0.0090                 0.0039                 0.0081
 Red. Mass:       2.1768                 4.9947                 5.7776
 IR Intens:       68.042                 32.061                 38.430
 Frequency:        58.60                  72.61                  93.91
 Force Cnst:      0.0153                 0.0202                 0.0272
 Red. Mass:       7.5749                 6.5033                 5.2375
 IR Intens:        4.053                 18.712                  0.845
 Frequency:        98.27                 175.45                 207.89
 Force Cnst:      0.0427                 0.0439                 0.0898
 Red. Mass:       7.5088                 2.4214                 3.5256
 IR Intens:        3.483                 35.249                 45.162
 Frequency:       242.10                 297.91                 321.44
 Force Cnst:      0.2374                 0.4234                 0.0642
 Red. Mass:       6.8751                 8.0977                 1.0553
 IR Intens:       11.653                  0.622                 96.631
 Frequency:       331.48                 331.79                 366.76
 Force Cnst:      0.0666                 0.0741                 0.0888
 Red. Mass:       1.0290                 1.1421                 1.1203
 IR Intens:       12.073                 73.982                117.797
 Frequency:       373.05                 422.08                 579.61
 Force Cnst:      0.3084                 1.1917                 0.7734
 Red. Mass:       3.7612                11.3537                 3.9072
 IR Intens:       10.693                  0.557                  7.430
 Frequency:       637.08                 721.90                 794.02
 Force Cnst:      0.2569                 0.8972                 0.9664
 Red. Mass:       1.0742                 2.9220                 2.6017
 IR Intens:      268.047                 56.362                 95.794
 Frequency:       886.49                 913.90                1012.44
 Force Cnst:      3.2870                 4.9652                 0.7335
 Red. Mass:       7.0990                10.0899                 1.2146
 IR Intens:       59.952                 42.446                 40.570
 Frequency:      1108.44                1409.58                1439.47
 Force Cnst:      6.2144                15.4786                16.7555
 Red. Mass:       8.5848                13.2221                13.7246
 IR Intens:       65.401                405.745                351.726
 Frequency:      1576.03                1592.43                1597.20
 Force Cnst:      1.7985                 1.6137                 1.6236
 Red. Mass:       1.2289                 1.0801                 1.0802
 IR Intens:       29.191                  5.270                  1.464
 Frequency:      1801.51                1827.18                1876.65
 Force Cnst:     10.4950                 3.1355                 7.5272
 Red. Mass:       5.4886                 1.5940                 3.6276
 IR Intens:      540.154                241.574                324.871
 Frequency:      2888.05                2942.09                3007.19
 Force Cnst:      5.1379                 5.5362                 5.7986
 Red. Mass:       1.0455                 1.0856                 1.0883
 IR Intens:      334.111                255.117                342.778
 Frequency:      3210.66                4013.61                4118.97
 Force Cnst:      6.5807                 9.9644                10.7729
 Red. Mass:       1.0835                 1.0499                 1.0777
 IR Intens:       32.354                 74.040                 68.185

 STANDARD THERMODYNAMIC QUANTITIES AT   298.15 K  AND     1.00 ATM

   This Molecule has  1 Imaginary Frequencies
   Zero point vibrational energy:       62.091 kcal/mol

   Atom    1 Element C  Has Mass   12.00000
   Atom    2 Element O  Has Mass   15.99491
   Atom    3 Element O  Has Mass   15.99491
   Atom    4 Element C  Has Mass   12.00000
   Atom    5 Element O  Has Mass   15.99491
   Atom    6 Element C  Has Mass   12.00000
   Atom    7 Element O  Has Mass   15.99491
   Atom    8 Element C  Has Mass   12.00000
   Atom    9 Element H  Has Mass    1.00783
   Atom   10 Element H  Has Mass    1.00783
   Atom   11 Element H  Has Mass    1.00783
   Atom   12 Element C  Has Mass   12.00000
   Atom   13 Element H  Has Mass    1.00783
   Atom   14 Element H  Has Mass    1.00783
   Atom   15 Element H  Has Mass    1.00783
   Molecular Mass:   130.026620 amu
   Principal axes and moments of inertia in amu*Bohr^2:
                             1           2           3
    Eigenvalues --      951.85445  2498.57331  2639.67935
          X               0.99977    -0.01583    -0.01453
          Y               0.01573     0.99985    -0.00666
          Z               0.01463     0.00643     0.99987
   Rotational Symmetry Number is   1
   The Molecule is an Asymmetric Top
   Translational Enthalpy:        0.889 kcal/mol
   Rotational Enthalpy:           0.889 kcal/mol
   Vibrational Enthalpy:         68.163 kcal/mol
   gas constant (RT):             0.592 kcal/mol
   Translational Entropy:        40.501  cal/mol.K
   Rotational Entropy:           30.219  cal/mol.K
   Vibrational Entropy:          42.329  cal/mol.K

   Total Enthalpy:               70.533 kcal/mol
   Total Entropy:               113.048  cal/mol.K

 Total job time:  227.16s(wall), 224.87s(cpu)
        *  Thank you very much for using Q-Chem.  Have a nice day.  *
