 Q-Chem 4.3, Q-Chem, Inc., Pleasanton, CA (2015)
 Q-Chem 4.3.0 for Intel X86 Linux

User input:
--------------------------------------------------------------
$molecule
-2  1
C    1.35554    0.24384    0.05485
O    2.27286    0.27594   -0.81703
O    1.34948    0.86917    1.16185
C    0.08028   -0.70682   -0.22526
C   -0.23305   -0.67675   -1.78759
O    0.25010   -1.96139    0.19462
C   -1.14952    0.04215    0.39764
O   -2.00535   -0.48110    1.10685
C   -1.35638    1.53121    0.03887
H   -0.54250    1.94719   -0.55924
H   -1.42829    2.10063    0.97341
H   -2.30959    1.63212   -0.50558
H   -1.08694   -1.34541   -1.97767
H    0.66449   -1.07453   -2.27198
H   -0.44027    0.32127   -2.21502
****
C    1.49350    0.18120   -0.37275
O    1.85084    1.30923    0.07829
O    1.98910   -0.46545   -1.33773
C    0.30748   -0.49700    0.37363
C   -1.25681    0.44808   -1.42492
O    0.56613   -1.31533    1.25406
C   -1.20502   -0.09797    0.04581
O   -2.09542   -1.07992    0.24945
C   -1.46361    1.13938    0.99992
H   -2.48366    1.50237    0.79392
H   -0.73924    1.95759    0.87115
H   -1.42786    0.78455    2.03837
H   -1.05888   -0.37493   -2.12299
H   -0.54186    1.25972   -1.62866
H   -2.28030    0.81272   -1.60269
$end

$solvent
CavityRadius    30
Dielectric     78.39
$end

$rem
jobtype         fsm
fsm_ngrad       3
fsm_nnode       12
fsm_mode     2
fsm_opt_mode 2
method          b3lyp
basis           6-31+G(d)
SOLVENT_METHOD ONSAGER
--------------------------------------------------------------

   18    -495.0364931630      2.09E-09 Convergence criterion met
 Total energy in the final basis set = -495.0364931630
   18    -495.0364931602      2.09E-09 Convergence criterion met
 Total energy in the final basis set = -495.0364931602
   18    -495.0532773712      3.08E-09 Convergence criterion met
 Total energy in the final basis set = -495.0532773712
   17    -495.0261320821      9.26E-09 Convergence criterion met
 Total energy in the final basis set = -495.0261320821
   17    -495.0285978706      8.43E-09 Convergence criterion met
 Total energy in the final basis set = -495.0285978706
   17    -495.0408125138      9.76E-09 Convergence criterion met
 Total energy in the final basis set = -495.0408125138
   18    -495.0450179926      3.14E-09 Convergence criterion met
 Total energy in the final basis set = -495.0450179926
   18    -495.0121189392      2.73E-09 Convergence criterion met
 Total energy in the final basis set = -494.9961937218
   17    -494.9963431068      7.38E-09 Convergence criterion met
 Total energy in the final basis set = -494.9963431068
   17    -494.9962093386      7.34E-09 Convergence criterion met
 Total energy in the final basis set = -494.9962093386
   17    -494.9963276748      7.39E-09 Convergence criterion met
 Total energy in the final basis set = -494.9963276748
   17    -494.9962236836      7.34E-09 Convergence criterion met
 Total energy in the final basis set = -494.9962236836
   17    -494.9963134898      7.39E-09 Convergence criterion met
 Total energy in the final basis set = -494.9963134898
   17    -494.9962420350      7.33E-09 Convergence criterion met
 Total energy in the final basis set = -494.9962420350
   17    -494.9962953735      7.40E-09 Convergence criterion met
 Total energy in the final basis set = -494.9962953735

                    Orbital Energies (a.u.)
 --------------------------------------------------------------

 Alpha MOs
 -- Occupied --
-18.817 -18.789 -18.776 -18.775  -9.968  -9.960  -9.942  -9.922
 -9.883  -0.714  -0.703  -0.658  -0.613  -0.463  -0.395  -0.330
 -0.242  -0.186  -0.162  -0.144  -0.135  -0.108  -0.104  -0.102
 -0.082  -0.081  -0.069  -0.057  -0.004   0.037   0.052   0.065
  0.092   0.100   0.114

          Ground-State Mulliken Net Atomic Charges

     Atom                 Charge (a.u.)
  ----------------------------------------
      1 C                     0.309543
      2 O                    -0.616896
      3 O                    -0.587371
      4 C                     0.170200
      5 C                    -0.918200
      6 O                    -0.537075
      7 C                     0.459217
      8 O                    -0.549500
      9 C                    -0.856594
     10 H                     0.191637
     11 H                     0.196178
     12 H                     0.182780
     13 H                     0.190409
     14 H                     0.221426
     15 H                     0.144247
  ----------------------------------------
  Sum of atomic charges =    -2.000000

                    Cartesian Multipole Moments
 -----------------------------------------------------------------
    Charge (ESU x 10^10)
                -9.6064
    Dipole Moment (Debye)
         X      -3.3586      Y       2.9634      Z      -1.2173
       Tot       4.6415
    Quadrupole Moments (Debye-Ang)
        XX    -101.3275     XY      -9.2852     YY     -74.5064
        XZ      -2.5401     YZ       4.6414     ZZ     -80.3045

             Standard Nuclear Orientation (Angstroms)
    I     Atom           X                Y                Z
 ----------------------------------------------------------------
    1      C       1.8375697769    -0.0251730391     0.5846743996
    2      O       2.2812464006     0.5879212839    -0.4212956270
    3      O       2.3502128118    -0.0070001365     1.7463637550
    4      C       0.4545322312    -0.8518808195     0.5966645159
    5      C      -0.0734275859    -0.8064877599    -1.4013725381
    6      O       0.5011078979    -1.9989957728     1.1210958218
    7      C      -0.8862059875    -0.1791951631     0.5234111462
    8      O      -1.9458942509    -0.7850693953     0.8444521492
    9      C      -1.0256111394     1.3520771694     0.3659085526
   10      H      -0.7274340899     1.7500872119    -0.6109540875
   11      H      -0.4272347571     1.8681217088     1.1313340229
   12      H      -2.0876998094     1.5767484050     0.5347037343
   13      H      -0.5789603938    -1.7689031840    -1.5205589323
   14      H       0.9471177143    -0.8054306267    -1.7959224196
   15      H      -0.6419529979    -0.0155551166    -1.9181829353
 ----------------------------------------------------------------

 Total job time:  19625.66s(wall), 16357.34s(cpu)
        *  Thank you very much for using Q-Chem.  Have a nice day.  *
