 Q-Chem 4.3, Q-Chem, Inc., Pleasanton, CA (2015)
 Q-Chem 4.3.0 for Intel X86 Linux

User input:
--------------------------------------------------------------
$comment
Title
$end

$molecule
-2 1
C         1.887        -0.045          0.569
O         2.441         0.530         -0.396
O         2.389        -0.135          1.731
C         0.469        -0.816          0.588
O        -0.070        -0.786         -1.399
C         0.491        -1.927          1.187
O        -0.879        -0.161          0.518
C        -1.915        -0.795          0.879
H        -1.081         1.360          0.349
H        -0.825         1.763         -0.636
H        -0.492         1.910          1.097
C        -2.151         1.530          0.543
H        -0.567        -1.749         -1.512
H         0.941        -0.774         -1.812
H        -0.656        -0.010         -1.924
$end

$molecule
READ
$end

$rem
jobtype          TS
exchange         b3lyp
basis            6-31+G(d)
geom_opt_maxcyc  100
$end

--------------------------------------------------------------

   27    -494.1457258696      8.28E-09 Convergence criterion met
 Total energy in the final basis set = -494.1457258696
   20    -494.1665617305      7.31E-09 Convergence criterion met
 Total energy in the final basis set = -494.1665617305
   20    -494.1874019440      6.51E-09 Convergence criterion met
 Total energy in the final basis set = -494.1874019440
   19    -494.2080760050      7.77E-09 Convergence criterion met
 Total energy in the final basis set = -494.2080760050
   19    -494.2473978015      4.07E-09 Convergence criterion met
 Total energy in the final basis set = -494.2473978015
   17    -494.2591811046      8.96E-09 Convergence criterion met
 Total energy in the final basis set = -494.2591811046
   17    -494.2680966161      8.56E-09 Convergence criterion met
 Total energy in the final basis set = -494.2680966161
   17    -494.2798663536      5.99E-09 Convergence criterion met
 Total energy in the final basis set = -494.8469043094
   12    -494.8470834933      6.76E-09 Convergence criterion met
 Total energy in the final basis set = -494.8470834933
   12    -494.8473499981      9.05E-09 Convergence criterion met
 Total energy in the final basis set = -494.8473499981
   13    -494.8476955423      4.70E-09 Convergence criterion met
 Total energy in the final basis set = -494.8476955423
   13    -494.8480916976      3.56E-09 Convergence criterion met
 Total energy in the final basis set = -494.8480916976
   13    -494.8484740606      3.18E-09 Convergence criterion met
 Total energy in the final basis set = -494.8484740606
   13    -494.8488440035      4.39E-09 Convergence criterion met
 Total energy in the final basis set = -494.8488440035
 Q-Chem 4.3, Q-Chem, Inc., Pleasanton, CA (2015)
 Q-Chem 4.3.0 for Intel X86 Linux

User input:
--------------------------------------------------------------

$molecule
READ
$end

$rem
jobtype          FREQ
exchange         b3lyp
basis            6-31+G(d)
pdb_print 2
NBO TRUE
$end
--------------------------------------------------------------

             Standard Nuclear Orientation (Angstroms)
    I     Atom           X                Y                Z
 ----------------------------------------------------------------
    1      C       2.3540078377     0.1599968918     0.3532575199
    2      O       1.7017807654     1.2883732650     0.3630246902
    3      O       3.3735545169    -0.0948342004     1.0229586532
    4      C       1.7311362707    -0.7945520306    -0.5903693441
    5      O      -0.3495710210     1.0440359409    -1.0476740238
    6      C       0.9437991822    -1.1654565940    -1.4847909308
    7      O      -2.1463366252    -1.7271976713     0.8218911892
    8      C      -2.8303165931    -2.2603753289     0.0825711574
    9      H      -3.2975307316     1.0468491078     0.5570155382
   10      H      -3.3277727544     2.4428616376    -0.5929742933
   11      H      -3.7249901555     2.6787056699     1.1434694367
   12      C      -3.8158237622     1.9844852274     0.2869115315
   13      H       0.0130258534    -0.0462205096    -1.4220709870
   14      H       0.5397367115     1.2165954813    -0.4013337374
   15      H      -1.1347076244     1.0336009461    -0.4511896321
 ----------------------------------------------------------------

   18    -494.8491335708      9.63E-09 Convergence criterion met
 Total energy in the final basis set = -494.8491335708

                    Orbital Energies (a.u.)
 --------------------------------------------------------------

 Alpha MOs
 -- Occupied --
-19.059 -18.947 -18.884 -18.870 -10.106 -10.062  -9.924  -9.907
 -9.861  -0.956  -0.806  -0.787  -0.714  -0.490  -0.368  -0.353
 -0.350  -0.311  -0.275  -0.266  -0.264  -0.198  -0.179  -0.177
 -0.171  -0.149  -0.083  -0.080  -0.058  -0.030  -0.029  -0.020
 -0.011   0.009   0.116

          Ground-State Mulliken Net Atomic Charges

     Atom                 Charge (a.u.)
  ----------------------------------------
      1 C                     0.293070
      2 O                    -0.659591
      3 O                    -0.612927
      4 C                     0.655590
      5 O                    -0.934240
      6 C                    -1.203153
      7 O                    -0.118318
      8 C                     0.067091
      9 H                     0.106200
     10 H                     0.115651
     11 H                     0.106156
     12 C                    -1.253927
     13 H                     0.364176
     14 H                     0.575204
     15 H                     0.499018
  ----------------------------------------
  Sum of atomic charges =    -2.000000

                    Cartesian Multipole Moments
 -----------------------------------------------------------------
    Charge (ESU x 10^10)
                -9.6064
    Dipole Moment (Debye)
         X       6.6313      Y      -5.5988      Z       0.6604
       Tot       8.7038
    Quadrupole Moments (Debye-Ang)
        XX    -181.7200     XY      31.5605     YY     -93.1544
        XZ      -4.6114     YZ      -9.2377     ZZ     -76.7961

 Frequency:     -1344.42                -115.47                 -74.68
 Force Cnst:      1.1515                 0.0094                 0.0049
 Red. Mass:       1.0813                 1.1941                 1.4883
 IR Intens:     1011.597                 34.085                 28.689
 Frequency:       -32.53                  12.53                  33.46
 Force Cnst:      0.0033                 0.0008                 0.0061
 Red. Mass:       5.3432                 8.5976                 9.1842
 IR Intens:      104.836                 10.469                 13.595
 Frequency:        52.08                  57.58                  81.50
 Force Cnst:      0.0109                 0.0113                 0.0191
 Red. Mass:       6.7904                 5.7968                 4.8761
 IR Intens:       12.500                  7.391                  8.807
 Frequency:        93.78                 129.03                 138.48
 Force Cnst:      0.0318                 0.0280                 0.0644
 Red. Mass:       6.1303                 2.8551                 5.6964
 IR Intens:        4.411                 35.315                  3.867
 Frequency:       200.27                 240.55                 267.88
 Force Cnst:      0.0260                 0.3109                 0.4465
 Red. Mass:       1.1002                 9.1196                10.5610
 IR Intens:       86.422                 31.243                  9.011
 Frequency:       408.66                 461.47                 559.69
 Force Cnst:      0.5125                 0.8658                 2.2691
 Red. Mass:       5.2086                 6.9002                12.2944
 IR Intens:      313.203                 20.424                 22.857
 Frequency:       637.87                 662.77                 735.30
 Force Cnst:      0.2563                 2.9803                 0.3395
 Red. Mass:       1.0693                11.5157                 1.0659
 IR Intens:      135.255                 91.891                 24.438
 Frequency:       780.42                 833.30                 883.79
 Force Cnst:      3.6879                 0.4966                 6.2511
 Red. Mass:      10.2772                 1.2138                13.5834
 IR Intens:       35.606                296.236                 48.514
 Frequency:      1108.75                1256.26                1354.88
 Force Cnst:      0.7812                 4.3138                 1.2224
 Red. Mass:       1.0785                 4.6392                 1.1302
 IR Intens:       67.057               1294.113                630.292
 Frequency:      1458.42                1468.34                1518.58
 Force Cnst:      1.3568                 1.3709                 1.8954
 Red. Mass:       1.0827                 1.0792                 1.3950
 IR Intens:        9.487                  1.886               1866.543
 Frequency:      1581.32                1689.29                1817.80
 Force Cnst:      1.8877                 4.5220                 2.0840
 Red. Mass:       1.2813                 2.6895                 1.0704
 IR Intens:     1076.843                 85.333                310.080
 Frequency:      2021.19                2144.68                2925.11
 Force Cnst:     28.3982                35.9057                 5.1571
 Red. Mass:      11.7985                13.2492                 1.0230
 IR Intens:       41.609                560.666                207.512
 Frequency:      3001.63                3020.72                3514.96
 Force Cnst:      5.8376                 5.9283                 7.7591
 Red. Mass:       1.0997                 1.1027                 1.0659
 IR Intens:      137.907                105.176                748.445

 STANDARD THERMODYNAMIC QUANTITIES AT   298.15 K  AND     1.00 ATM

   This Molecule has  4 Imaginary Frequencies
   Zero point vibrational energy:       53.112 kcal/mol

   Atom    1 Element C  Has Mass   12.00000
   Atom    2 Element O  Has Mass   15.99491
   Atom    3 Element O  Has Mass   15.99491
   Atom    4 Element C  Has Mass   12.00000
   Atom    5 Element O  Has Mass   15.99491
   Atom    6 Element C  Has Mass   12.00000
   Atom    7 Element O  Has Mass   15.99491
   Atom    8 Element C  Has Mass   12.00000
   Atom    9 Element H  Has Mass    1.00783
   Atom   10 Element H  Has Mass    1.00783
   Atom   11 Element H  Has Mass    1.00783
   Atom   12 Element C  Has Mass   12.00000
   Atom   13 Element H  Has Mass    1.00783
   Atom   14 Element H  Has Mass    1.00783
   Atom   15 Element H  Has Mass    1.00783
   Molecular Mass:   130.026620 amu
   Principal axes and moments of inertia in amu*Bohr^2:
                             1           2           3
    Eigenvalues --     1159.55070  2894.78291  3448.97640
          X               0.99890    -0.04643    -0.00610
          Y               0.04648     0.99888     0.00865
          Z               0.00569    -0.00892     0.99994
   Rotational Symmetry Number is   1
   The Molecule is an Asymmetric Top
   Translational Enthalpy:        0.889 kcal/mol
   Rotational Enthalpy:           0.889 kcal/mol
   Vibrational Enthalpy:         58.889 kcal/mol
   gas constant (RT):             0.592 kcal/mol
   Translational Entropy:        40.501  cal/mol.K
   Rotational Entropy:           30.827  cal/mol.K
   Vibrational Entropy:          45.162  cal/mol.K

   Total Enthalpy:               61.259 kcal/mol
   Total Entropy:               116.489  cal/mol.K

 Total job time:  2183.42s(wall), 2183.38s(cpu)
        *  Thank you very much for using Q-Chem.  Have a nice day.  *
