 Q-Chem 4.3, Q-Chem, Inc., Pleasanton, CA (2015)
 Q-Chem 4.3.0 for Intel X86 Linux

User input:
--------------------------------------------------------------
$comment
TS Frame 1020 converged, trying to find the RPATH now
$end

$molecule
-2 1
C
O  1 1.266166
C  1 1.501701 2 121.942692
O  3 1.253523 1 124.466424 2 2.481059 0
C  3 1.535840 1 118.144822 2 -171.911579 0
H  5 1.092857 3 113.598303 1 -18.094820 0
H  5 1.099114 3 108.067065 1 101.564700 0
H  5 1.100575 3 108.683140 1 -140.953714 0
C  1 1.580999 2 117.021145 3 -157.215339 0
O  9 1.262592 1 119.509853 2 -76.735683 0
O  9 1.270833 1 113.491741 2 99.649612 0
C  1 2.078293 2 107.888271 3 84.219046 0
H  12 1.092352 1 98.300440 2 -32.861421 0
H  12 1.092402 1 91.513803 2 81.657851 0
H  12 1.100580 1 126.448085 2 -159.194350 0
$end

$rem
jobtype sp
basis 6-31+G(d)
exchange b3lyp
NBO TRUE
$end

$nbo
nbosum
$end

--------------------------------------------------------------

             Standard Nuclear Orientation (Angstroms)
    I     Atom           X                Y                Z
 ----------------------------------------------------------------
    1      C       0.0797945966    -0.4909783694    -0.4223075321
    2      O       0.1313474063    -1.4572744400    -1.2388799730
    3      C      -1.1864532086     0.2798716911    -0.1824897396
    4      O      -2.2889245969     0.0175537506    -0.7182751888
    5      C      -1.1098133330     1.5491098778     0.6788843141
    6      H      -0.2072507241     1.6077002662     1.2923045011
    7      H      -1.1176993056     2.4184439439     0.0063906875
    8      H      -2.0042769838     1.5956880274     1.3184393032
    9      C       1.4423313860     0.2349101035    -0.0815183592
   10      O       2.2586348364    -0.3142909509     0.7097877997
   11      O       1.6143739870     1.3173156007    -0.7248038300
   12      C      -0.6241447946    -1.2240138460     1.3905438455
   13      H      -1.2884339969    -1.9983756046     1.0002662336
   14      H       0.3695936068    -1.5869677565     1.6627396904
   15      H      -1.0856735372    -0.6363173016     2.1985539493
 ----------------------------------------------------------------

   11    -494.9863797361      6.07E-06 Convergence criterion met
 Total energy in the final basis set = -494.9863797361

                    Orbital Energies (a.u.)
 --------------------------------------------------------------

 Alpha MOs
 -- Occupied --
-18.821 -18.789 -18.788 -18.786  -9.967  -9.963  -9.943  -9.911
 -9.881  -0.716  -0.707  -0.663  -0.622  -0.461  -0.388  -0.336
 -0.242  -0.180  -0.157  -0.144  -0.136  -0.113  -0.108  -0.098
 -0.094  -0.083  -0.067  -0.058  -0.009   0.031   0.044   0.058
  0.075   0.104   0.111

          Ground-State Mulliken Net Atomic Charges

     Atom                 Charge (a.u.)
  ----------------------------------------
      1 C                     0.260783
      2 O                    -0.586809
      3 C                     0.311744
      4 O                    -0.557973
      5 C                    -0.770713
      6 H                     0.225175
      7 H                     0.192559
      8 H                     0.169514
      9 C                     0.319694
     10 O                    -0.612934
     11 O                    -0.605643
     12 C                    -0.929043
     13 H                     0.200323
     14 H                     0.233231
     15 H                     0.150093
  ----------------------------------------
  Sum of atomic charges =    -2.000000

                    Cartesian Multipole Moments
 -----------------------------------------------------------------
    Charge (ESU x 10^10)
                -9.6064
    Dipole Moment (Debye)
         X      -3.0502      Y       2.5844      Z       2.2664
       Tot       4.5956
    Quadrupole Moments (Debye-Ang)
        XX    -100.2787     XY      -5.0604     YY     -78.8415
        XZ      -3.2602     YZ       2.0565     ZZ     -76.9266

 Total job time:  179.65s(wall), 149.80s(cpu)
        *  Thank you very much for using Q-Chem.  Have a nice day.  *
