 Q-Chem 4.3, Q-Chem, Inc., Pleasanton, CA (2015)
 Q-Chem 4.3.0 for Intel X86 Linux

User input:
--------------------------------------------------------------
$rem
JOBTYPE Opt
EXCHANGE HF
BASIS 6-31+G(d)
GUI=2
SOLVENT_METHOD ONSAGER
pdb_print 2
NBO TRUE
$end

$comment
reactantstate
$end

$solvent
CavityRadius    30
Dielectric     78.39
$end

$molecule
-2 1
C        3.29600       -0.86600        2.39400
O        4.50600       -1.03900        2.12000
O        2.92600       -0.95400        3.64500
C        2.15900       -0.62100        1.29800
C        1.96600       -1.76700        0.31200
O        0.94700       -0.47600        2.01100
C        2.44300        0.67600        0.56700
O        1.59900        1.61900        0.54700
C        3.71800        0.81000       -0.11300
H        4.08300       -0.17800       -0.30800
H        4.36500        1.05500        0.71800
H        3.63500        1.42000       -1.07500
H        1.31600       -1.57200       -0.59100
H        1.23900       -2.36100        0.98400
H        2.92900       -2.26400        0.05400
$end

--------------------------------------------------------------

   18    -492.1341969113      6.06E-09 Convergence criterion met
 Total energy in the final basis set = -492.1341969113
   15    -492.1723103266      4.32E-09 Convergence criterion met
 Total energy in the final basis set = -492.1723103266
   15    -492.1925259101      4.80E-09 Convergence criterion met
 Total energy in the final basis set = -492.1925259101
   14    -492.1976094579      8.32E-09 Convergence criterion met
 Total energy in the final basis set = -492.1976094579
   14    -492.2000271081      3.96E-09 Convergence criterion met
 Total energy in the final basis set = -492.2000271081
   14    -492.2006626584      6.87E-09 Convergence criterion met
 Total energy in the final basis set = -492.2006626584
   14    -492.2017937464      5.27E-09 Convergence criterion met
 Total energy in the final basis set = -492.2017937464
   14    -492.2021121579      4.96E-09 Convergence criterion met
   13    -492.2109032517      5.38E-09 Convergence criterion met
 Total energy in the final basis set = -492.2109032517
   13    -492.2115204184      5.76E-09 Convergence criterion met
 Total energy in the final basis set = -492.2115204184
   13    -492.2118226218      5.52E-09 Convergence criterion met
 Total energy in the final basis set = -492.2118226218
   13    -492.2118840009      6.53E-09 Convergence criterion met
 Total energy in the final basis set = -492.2118840009
   12    -492.2119040027      3.48E-09 Convergence criterion met
 Total energy in the final basis set = -492.2119040027
   10    -492.2119059816      8.30E-09 Convergence criterion met
 Total energy in the final basis set = -492.2119059816

             Standard Nuclear Orientation (Angstroms)
    I     Atom           X                Y                Z
 ----------------------------------------------------------------
    1      C       1.1887559631     0.2767093874     0.3878133301
    2      O       0.9502041116     0.9715027955     1.3973797547
    3      O       2.2510644439     0.2690341700    -0.2602150429
    4      C       0.0181578301    -0.6701152171    -0.0904348680
    5      C       0.0565643550    -0.7982121207    -1.6545526004
    6      O       0.0595237983    -1.8738844110     0.4711620888
    7      C      -1.3038575901     0.1125188100     0.1818532930
    8      O      -2.3045832771    -0.3545638450     0.6618449365
    9      C      -1.3956572724     1.5731222394    -0.2881107145
   10      H      -2.2184882780     1.6551922404    -0.9993223106
   11      H      -0.4863309626     1.9445754506    -0.7388153759
   12      H      -1.6240697991     2.1877037586     0.5759162437
   13      H      -0.7779938316    -1.4267401203    -1.9691744907
   14      H       0.9862798347    -1.2948717169    -1.9012960345
   15      H       0.0212901088     0.1455707113    -2.2053217424
 ----------------------------------------------------------------

    9    -492.2119065072      7.73E-09 Convergence criterion met
 Total energy in the final basis set = -492.2119065072
 Final energy is   -492.211906507168
 **  OPTIMIZATION CONVERGED  **

                    Orbital Energies (a.u.)
 --------------------------------------------------------------

 Alpha MOs
 -- Occupied --
-20.256 -20.168 -20.167 -20.109 -11.021 -10.990 -10.954 -10.944
-10.912  -1.092  -1.042  -0.934  -0.912  -0.729  -0.667  -0.549
 -0.440  -0.374  -0.331  -0.323  -0.319  -0.298  -0.276  -0.256
 -0.236  -0.229  -0.214  -0.201  -0.168  -0.110  -0.094  -0.070
 -0.059  -0.001   0.015

          Ground-State Mulliken Net Atomic Charges

     Atom                 Charge (a.u.)
  ----------------------------------------
      1 C                     0.592189
      2 O                    -0.758169
      3 O                    -0.794710
      4 C                     0.357488
      5 C                    -0.697605
      6 O                    -0.851889
      7 C                     0.328852
      8 O                    -0.577904
      9 C                    -0.665544
     10 H                     0.152954
     11 H                     0.205319
     12 H                     0.205867
     13 H                     0.159106
     14 H                     0.219373
     15 H                     0.124673
  ----------------------------------------
  Sum of atomic charges =    -2.000000

                    Cartesian Multipole Moments
 -----------------------------------------------------------------
    Charge (ESU x 10^10)
                -9.6064
    Dipole Moment (Debye)
         X      -4.5661      Y       4.1422      Z      -4.2972
       Tot       7.5149
    Quadrupole Moments (Debye-Ang)
        XX     -92.0780     XY      -6.8915     YY     -79.8088
        XZ       1.9267     YZ      -0.9526     ZZ     -70.6730

 Total job time:  5639.81s(wall), 5651.90s(cpu)
        *  Thank you very much for using Q-Chem.  Have a nice day.  *
