 Q-Chem 4.3, Q-Chem, Inc., Pleasanton, CA (2015)
 Q-Chem 4.3.0 for Intel X86 Linux

User input:
--------------------------------------------------------------
$comment
Title
$end

$molecule
-2 1
C         3.498        -1.321          2.640
O         4.603        -1.547          2.091
O         3.149        -1.614          3.838
C         2.409        -0.623          1.832
C         2.027        -2.001          0.324
O         1.280        -0.399          2.450
C         2.530         0.006          0.476
O         1.496         0.656          0.008
C         3.746         0.179         -0.365
H         3.417        -0.086         -1.495
H         4.571        -0.479          0.001
H         4.028         1.298         -0.262
H         1.096        -1.892         -0.319
H         1.822        -2.661          1.218
H         3.008        -2.234         -0.198
$end

$solvent
CavityRadius    30
Dielectric     78.39
$end

$molecule
READ
$end

$rem
jobtype          FREQ
exchange         b3lyp
basis            6-31+G(d)
pdb_print 2
SOLVENT_METHOD ONSAGER
NBO TRUE
$end

--------------------------------------------------------------

   17    -494.9786655335      7.52E-09 Convergence criterion met
 Total energy in the final basis set = -494.9786655335
 Frequency:      -343.86                 -32.52                 135.80
 Force Cnst:      0.4314                 0.0071                 0.0651
 Red. Mass:       6.1929                11.3750                 5.9915
 IR Intens:      135.166                  0.211                  2.741
 Frequency:       191.89                 259.29                 310.78
 Force Cnst:      0.1057                 0.1791                 0.2990
 Red. Mass:       4.8742                 4.5227                 5.2551
 IR Intens:       11.206                 17.143                 40.086
 Frequency:       362.25                 430.60                 460.88
 Force Cnst:      0.3860                 1.1577                 1.4149
 Red. Mass:       4.9922                10.5976                11.3056
 IR Intens:        2.604                  7.471                  1.261
 Frequency:       489.62                 542.63                 564.41
 Force Cnst:      0.3940                 0.3931                 0.4458
 Red. Mass:       2.7891                 2.2659                 2.3751
 IR Intens:       40.446                 59.583                 15.510
 Frequency:       583.99                 665.99                 683.85
 Force Cnst:      0.7695                 0.2756                 1.1504
 Red. Mass:       3.8294                 1.0547                 4.1752
 IR Intens:       44.185                  3.990                 14.965
 Frequency:       777.87                 809.74                 940.31
 Force Cnst:      3.1091                 3.4435                 0.6095
 Red. Mass:       8.7212                 8.9138                 1.1701
 IR Intens:       50.088                 21.196                 16.841
 Frequency:       996.96                1039.76                1118.66
 Force Cnst:      0.7343                 2.8236                 1.3739
 Red. Mass:       1.2539                 4.4329                 1.8634
 IR Intens:       19.778                111.246                 56.395
 Frequency:      1169.64                1178.91                1280.83
 Force Cnst:      0.9440                 1.0878                 5.5382
 Red. Mass:       1.1711                 1.3284                 5.7298
 IR Intens:       23.392                  6.846                157.642
 Frequency:      1320.76                1363.55                1380.62
 Force Cnst:      5.7431                 6.7298                 8.9156
 Red. Mass:       5.5879                 6.1434                 7.9388
 IR Intens:       53.961                411.746                276.105
 Frequency:      1440.15                1465.22                1496.96
 Force Cnst:      1.7772                 1.3733                 1.4061
 Red. Mass:       1.4544                 1.0857                 1.0650
 IR Intens:       27.877                  2.905                 10.203
 Frequency:      1517.43                1529.23                1636.55
 Force Cnst:      1.4630                 1.4690                18.1287
 Red. Mass:       1.0784                 1.0662                11.4884
 IR Intens:        1.135                  5.486                469.751
 Frequency:      2149.03                2535.87                2674.11
 Force Cnst:      2.8962                 4.0633                 4.2935
 Red. Mass:       1.0644                 1.0724                 1.0191
 IR Intens:      159.086                 99.396                 74.279
 Frequency:      2796.28                2811.53                2908.32
 Force Cnst:      5.1289                 5.1449                 5.4036
 Red. Mass:       1.1133                 1.1047                 1.0843
 IR Intens:       44.166                 27.032                 29.689
 Total job time:  2975.51s(wall), 2975.92s(cpu)
        *  Thank you very much for using Q-Chem.  Have a nice day.  *
 Q-Chem 4.3, Q-Chem, Inc., Pleasanton, CA (2015)
 Q-Chem 4.3.0 for Intel X86 Linux

User input:
--------------------------------------------------------------

$molecule
READ
$end

$solvent
CavityRadius    30
Dielectric     78.39
$end

$rem
SOLVENT_METHOD ONSAGER
jobtype          TS
exchange         b3lyp
basis            6-31+G(d)
geom_opt_maxcyc  100
$end

--------------------------------------------------------------

   17    -494.9786655333      7.52E-09 Convergence criterion met
 Total energy in the final basis set = -494.9786655333
   13    -494.9801619097      8.12E-09 Convergence criterion met
 Total energy in the final basis set = -494.9801619097
   14    -494.9939445132      6.43E-09 Convergence criterion met
 Total energy in the final basis set = -494.9939445132
   14    -495.0014751356      5.15E-09 Convergence criterion met
 Total energy in the final basis set = -495.0014751356
   14    -495.0087809937      5.14E-09 Convergence criterion met
 Total energy in the final basis set = -495.0087809937
   13    -495.0118986123      9.54E-09 Convergence criterion met
 Total energy in the final basis set = -495.0118986123
   13    -495.0131947188      8.47E-09 Convergence criterion met
   10    -495.0450579256      8.36E-09 Convergence criterion met
 Total energy in the final basis set = -495.0450579256
   11    -495.0450609278      4.21E-09 Convergence criterion met
 Total energy in the final basis set = -495.0450609278
   10    -495.0450623132      5.18E-09 Convergence criterion met
 Total energy in the final basis set = -495.0450623132
   12    -495.0450598446      4.80E-09 Convergence criterion met
 Total energy in the final basis set = -495.0450598446
   11    -495.0450661894      7.33E-09 Convergence criterion met
 Total energy in the final basis set = -495.0450661894
   10    -495.0450669987      7.12E-09 Convergence criterion met
 Total energy in the final basis set = -495.0450669987
 Final energy is   -495.045066998677
 **  OPTIMIZATION CONVERGED  **
        *  Thank you very much for using Q-Chem.  Have a nice day.  *
 Q-Chem 4.3, Q-Chem, Inc., Pleasanton, CA (2015)
 Q-Chem 4.3.0 for Intel X86 Linux

User input:
--------------------------------------------------------------

$solvent
CavityRadius    30
Dielectric     78.39
$end

$molecule
READ
$end

$rem
jobtype          FREQ
exchange         b3lyp
basis            6-31+G(d)
pdb_print 2
NBO TRUE
SOLVENT_METHOD ONSAGER
$end
--------------------------------------------------------------

             Standard Nuclear Orientation (Angstroms)
    I     Atom           X                Y                Z
 ----------------------------------------------------------------
    1      C       1.6153508013     0.2525654029    -0.0001808440
    2      O       1.4540873627     1.5079751180    -0.0195975063
    3      O       2.7060923291    -0.3762346898     0.0206329541
    4      C       0.2818539198    -0.6688478858    -0.0031764195
    5      C      -1.2986037509     0.8595503769    -1.2712732677
    6      O       0.4364649383    -1.8792890236    -0.0160708104
    7      C      -1.2004625623    -0.0637617107     0.0045515998
    8      O      -2.1677515451    -0.9906365700     0.0143950969
    9      C      -1.2887889634     0.8719729726     1.2715350656
   10      H      -2.2960827820     1.3176725182     1.2683873271
   11      H      -0.5224690306     1.6567709044     1.2926164060
   12      H      -1.2071689970     0.2473590759     2.1738068233
   13      H      -2.3054881742     1.3064594155    -1.2651515012
   14      H      -1.2251692564     0.2260574769    -2.1680931172
   15      H      -0.5308631070     1.6422869968    -1.3051806182
 ----------------------------------------------------------------

   17    -495.0450954353      5.93E-09 Convergence criterion met
 Total energy in the final basis set = -495.0450954353

                    Orbital Energies (a.u.)
 --------------------------------------------------------------

 Alpha MOs
 -- Occupied --
-18.844 -18.801 -18.799 -18.738  -9.975  -9.957  -9.928  -9.886
 -9.886  -0.740  -0.714  -0.636  -0.612  -0.442  -0.392  -0.323
 -0.240  -0.173  -0.150  -0.145  -0.131  -0.117  -0.114  -0.105
 -0.088  -0.072  -0.060  -0.042  -0.031   0.015   0.047   0.061
  0.080   0.116   0.122

          Ground-State Mulliken Net Atomic Charges

     Atom                 Charge (a.u.)
  ----------------------------------------
      1 C                     0.336564
      2 O                    -0.606095
      3 O                    -0.622361
      4 C                     0.277587
      5 C                    -0.639447
      6 O                    -0.420909
      7 C                    -0.124483
      8 O                    -0.665583
      9 C                    -0.642141
     10 H                     0.160476
     11 H                     0.217324
     12 H                     0.175067
     13 H                     0.160122
     14 H                     0.175296
     15 H                     0.218584
  ----------------------------------------
  Sum of atomic charges =    -2.000000

                    Cartesian Multipole Moments
 -----------------------------------------------------------------
    Charge (ESU x 10^10)
                -9.6064
    Dipole Moment (Debye)
         X      -0.3846      Y       2.2457      Z      -0.0283
       Tot       2.2786
    Quadrupole Moments (Debye-Ang)
        XX    -111.7302     XY      -8.5196     YY     -83.4434
        XZ       0.0178     YZ       0.1038     ZZ     -64.2796

 Frequency:       -62.64                  85.67                 197.79
 Force Cnst:      0.0292                 0.0242                 0.0359
 Red. Mass:      12.6302                 5.5906                 1.5581
 IR Intens:        0.777                  1.701                  3.257
 Frequency:       201.53                 247.20                 251.08
 Force Cnst:      0.1251                 0.0569                 0.0453
 Red. Mass:       5.2281                 1.5792                 1.2204
 IR Intens:        7.933                  3.424                  1.094
 Frequency:       289.45                 331.56                 358.57
 Force Cnst:      0.1527                 0.5202                 0.3133
 Red. Mass:       3.0941                 8.0312                 4.1365
 IR Intens:        0.027                  1.394                  1.653
 Frequency:       402.05                 435.82                 525.02
 Force Cnst:      0.5397                 0.4957                 0.6426
 Red. Mass:       5.6669                 4.4295                 3.9569
 IR Intens:        1.180                 16.153                  4.499
 Frequency:       537.71                 601.90                 766.05
 Force Cnst:      1.0400                 1.0260                 4.5101
 Red. Mass:       6.1053                 4.8066                13.0443
 IR Intens:        6.079                 14.638                 76.464
 Frequency:       787.37                 810.92                 857.28
 Force Cnst:      1.9129                 1.1942                 0.8968
 Red. Mass:       5.2369                 3.0824                 2.0711
 IR Intens:        5.200                  1.951                 30.804
 Frequency:       938.62                 989.60                1030.03
 Force Cnst:      3.5296                 0.7805                 1.1801
 Red. Mass:       6.7998                 1.3527                 1.8879
 IR Intens:       55.478                  5.247                 58.614
 Frequency:      1111.72                1160.79                1244.70
 Force Cnst:      1.8461                 1.7103                 4.4530
 Red. Mass:       2.5351                 2.1544                 4.8784
 IR Intens:       55.762                  8.790                213.067
 Frequency:      1328.18                1331.28                1351.90
 Force Cnst:      9.1599                 1.2568                 1.3848
 Red. Mass:       8.8130                 1.2036                 1.2860
 IR Intens:      126.261                 23.299                 59.341
 Frequency:      1482.64                1495.27                1500.14
 Force Cnst:      1.3604                 1.3946                 1.4026
 Red. Mass:       1.0504                 1.0587                 1.0578
 IR Intens:        0.314                 14.127                  1.331
 Frequency:      1516.32                1644.29                1734.79
 Force Cnst:      1.4303                18.1750                23.2891
 Red. Mass:       1.0559                11.4095                13.1345
 IR Intens:        6.346                508.016                273.872
 Frequency:      2981.53                2989.33                3039.54
 Force Cnst:      5.4238                 5.4494                 5.9838
 Red. Mass:       1.0356                 1.0350                 1.0993
 IR Intens:       93.786                142.674                 70.298
 Frequency:      3046.06                3090.33                3097.82
 Force Cnst:      5.9998                 6.1910                 6.2145
 Red. Mass:       1.0975                 1.1003                 1.0991
 IR Intens:      104.750                  5.657                 87.051

 STANDARD THERMODYNAMIC QUANTITIES AT   298.15 K  AND     1.00 ATM

   This Molecule has  1 Imaginary Frequencies
   Zero point vibrational energy:       65.463 kcal/mol

   Atom    1 Element C  Has Mass   12.00000
   Atom    2 Element O  Has Mass   15.99491
   Atom    3 Element O  Has Mass   15.99491
   Atom    4 Element C  Has Mass   12.00000
   Atom    5 Element C  Has Mass   12.00000
   Atom    6 Element O  Has Mass   15.99491
   Atom    7 Element C  Has Mass   12.00000
   Atom    8 Element O  Has Mass   15.99491
   Atom    9 Element C  Has Mass   12.00000
   Atom   10 Element H  Has Mass    1.00783
   Atom   11 Element H  Has Mass    1.00783
   Atom   12 Element H  Has Mass    1.00783
   Atom   13 Element H  Has Mass    1.00783
   Atom   14 Element H  Has Mass    1.00783
   Atom   15 Element H  Has Mass    1.00783
   Molecular Mass:   130.026620 amu
   Principal axes and moments of inertia in amu*Bohr^2:
                             1           2           3
    Eigenvalues --      708.17387  1385.39566  1701.10130
          X               0.99895    -0.04573     0.00017
          Y               0.04573     0.99895     0.00070
          Z              -0.00020    -0.00069     1.00000
   Rotational Symmetry Number is   1
   The Molecule is an Asymmetric Top
   Translational Enthalpy:        0.889 kcal/mol
   Rotational Enthalpy:           0.889 kcal/mol
   Vibrational Enthalpy:         69.047 kcal/mol
   gas constant (RT):             0.592 kcal/mol
   Translational Entropy:        40.501  cal/mol.K
   Rotational Entropy:           28.902  cal/mol.K
   Vibrational Entropy:          20.160  cal/mol.K

   Total Enthalpy:               71.417 kcal/mol
   Total Entropy:                89.563  cal/mol.K

 Total job time:  2969.94s(wall), 2970.39s(cpu)
        *  Thank you very much for using Q-Chem.  Have a nice day.  *
