 Q-Chem 4.3, Q-Chem, Inc., Pleasanton, CA (2015)
 Q-Chem 4.3.0 for Intel X86 Linux

User input:
--------------------------------------------------------------
$comment
Title
$end

$molecule
-2 1
C         1.887        -0.045          0.569
O         2.441         0.530         -0.396
O         2.389        -0.135          1.731
C         0.469        -0.816          0.588
O        -0.070        -0.786         -1.399
C         0.491        -1.927          1.187
O        -0.879        -0.161          0.518
C        -1.915        -0.795          0.879
H        -1.081         1.360          0.349
H        -0.825         1.763         -0.636
H        -0.492         1.910          1.097
C        -2.151         1.530          0.543
H        -0.567        -1.749         -1.512
H         0.941        -0.774         -1.812
H        -0.656        -0.010         -1.924
$end

$rem
JOBTYPE FREQ
EXCHANGE b3lyp
BASIS 6-31+G(d)
GUI=2
$end

--------------------------------------------------------------

   27    -494.1457258697      8.28E-09 Convergence criterion met
 Total energy in the final basis set = -494.1457258697
 Frequency:     -1616.61               -1208.34               -1078.55
 Force Cnst:      1.6206                 1.0195                 1.1827
 Red. Mass:       1.0525                 1.1851                 1.7256
 IR Intens:      337.120               2192.622                784.844
 Frequency:      -689.06                -593.41                -488.79
 Force Cnst:      0.6922                 0.3570                 0.2410
 Red. Mass:       2.4744                 1.7206                 1.7117
 IR Intens:     1124.942                124.037                141.455
 Frequency:      -261.80                -224.99                -208.45
 Force Cnst:      0.3308                 0.0412                 0.1420
 Red. Mass:       8.1909                 1.3808                 5.5475
 IR Intens:       23.524                  4.507                 10.574
 Frequency:      -162.43                 -78.92                 100.28
 Force Cnst:      0.0952                 0.0242                 0.0452
 Red. Mass:       6.1258                 6.5808                 7.6319
 IR Intens:       10.136                  8.576                  3.216
 Frequency:       154.31                 228.70                 266.13
 Force Cnst:      0.0907                 0.1734                 0.1531
 Red. Mass:       6.4663                 5.6275                 3.6695
 IR Intens:        9.429                 32.225                 17.713
 Frequency:       325.72                 422.16                 461.60
 Force Cnst:      0.3832                 0.5792                 0.3586
 Red. Mass:       6.1310                 5.5165                 2.8564
 IR Intens:       38.874                 18.066                155.588
 Frequency:       474.33                 546.24                 590.37
 Force Cnst:      0.6885                 0.2372                 1.6949
 Red. Mass:       5.1938                 1.3495                 8.2539
 IR Intens:       21.679                 69.176                 69.760
 Frequency:       667.88                 732.20                 743.80
 Force Cnst:      0.2913                 0.5380                 0.8481
 Red. Mass:       1.1083                 1.7032                 2.6020
 IR Intens:        4.164                 66.194                193.801
 Frequency:       769.75                 882.77                 937.51
 Force Cnst:      3.0169                 0.5399                 0.5984
 Red. Mass:       8.6421                 1.1760                 1.1556
 IR Intens:        5.111                295.176                132.477
 Frequency:       956.84                1083.05                1261.36
 Force Cnst:      0.8071                 2.4329                 1.4757
 Red. Mass:       1.4962                 3.5202                 1.5742
 IR Intens:      552.681                 75.844                123.277
 Frequency:      1263.09                1312.03                1426.64
 Force Cnst:      2.4948                 1.0739                 1.3121
 Red. Mass:       2.6541                 1.0589                 1.0942
 IR Intens:      231.095                342.722                718.340
 Frequency:      1529.91                1608.58                1824.12
 Force Cnst:      1.5612                15.8969                 2.2676
 Red. Mass:       1.1321                10.4274                 1.1567
 IR Intens:       73.386                232.826                289.411
 Frequency:      1877.31                2102.33                2524.51
 Force Cnst:     17.2108                 2.7735                 4.2087
 Red. Mass:       8.2886                 1.0651                 1.1208
 IR Intens:      136.466                826.513                676.279
 Total job time:  3098.07s(wall), 3098.96s(cpu)
        *  Thank you very much for using Q-Chem.  Have a nice day.  *
 Q-Chem 4.3, Q-Chem, Inc., Pleasanton, CA (2015)
 Q-Chem 4.3.0 for Intel X86 Linux

User input:
--------------------------------------------------------------

$molecule
READ
$end

$rem
jobtype          TS
exchange         b3lyp
basis            6-31+G(d)
geom_opt_hessian READ
geom_opt_maxcyc  100
$end

--------------------------------------------------------------

   27    -494.1457258696      8.28E-09 Convergence criterion met
 Total energy in the final basis set = -494.1457258696
   23    -494.1726962609      8.06E-09 Convergence criterion met
 Total energy in the final basis set = -494.1726962609
   38    -494.1998874823      9.51E-09 Convergence criterion met
 Total energy in the final basis set = -494.1998874823
   32    -494.2300780730      1.64E-09 Convergence criterion met
 Total energy in the final basis set = -494.2300780730
   22    -494.2593455167      4.76E-09 Convergence criterion met
 Total energy in the final basis set = -494.2593455167
   20    -494.2854148801      5.27E-09 Convergence criterion met
 Total energy in the final basis set = -494.2854148801
   20    -494.3112291819      3.85E-09 Convergence criterion met
 Total energy in the final basis set = -494.7349200080
   17    -494.7348511808      4.03E-09 Convergence criterion met
 Total energy in the final basis set = -494.7348511808
   17    -494.7349694743      9.41E-09 Convergence criterion met
 Total energy in the final basis set = -494.7349694743
   17    -494.7352533090      3.00E-09 Convergence criterion met
 Total energy in the final basis set = -494.7352533090
   17    -494.7354327458      9.42E-09 Convergence criterion met
 Total energy in the final basis set = -494.7354327458
   17    -494.7356595685      8.81E-09 Convergence criterion met
 Total energy in the final basis set = -494.7356595685
   17    -494.7358874283      7.46E-09 Convergence criterion met
 Total energy in the final basis set = -494.7358874283
 Q-Chem 4.3, Q-Chem, Inc., Pleasanton, CA (2015)
 Q-Chem 4.3.0 for Intel X86 Linux

User input:
--------------------------------------------------------------

$molecule
READ
$end

$rem
jobtype          FREQ
exchange         b3lyp
basis            6-31+G(d)
pdb_print 2
$end
--------------------------------------------------------------

             Standard Nuclear Orientation (Angstroms)
    I     Atom           X                Y                Z
 ----------------------------------------------------------------
    1      C       1.8651314975    -0.4071182817     0.3812541950
    2      O       1.7389900186     0.8563516677     0.4106430755
    3      O       2.8045385558    -1.0864127844     0.8857742112
    4      C       0.8525846661    -1.1934675666    -0.3440700707
    5      O       0.1537023868     2.7444591455    -1.0751219349
    6      C       0.1956537347    -1.9740121739    -1.1141413897
    7      O      -1.4596802048    -0.2442371560    -0.6366478060
    8      C      -2.4031965782    -0.7537426826    -0.0426894408
    9      H      -3.2459401695     1.3643684259     2.6903970406
   10      H      -1.1827100695     4.2769588946     1.5780253730
   11      H      -3.4030445787     1.8592150339     3.2281723213
   12      C      -3.4175111563    -1.3158709673     0.5466578984
   13      H      -0.5660684845     2.0918031426    -1.1454829589
   14      H       0.8224125587     2.1989052380    -0.5907271492
   15      H      -0.8810282898     3.9127323152     1.0003678541
 ----------------------------------------------------------------

   22    -494.7362491336      1.83E-09 Convergence criterion met
 Total energy in the final basis set = -494.7362491336

                    Orbital Energies (a.u.)
 --------------------------------------------------------------

 Alpha MOs
 -- Occupied --
-18.955 -18.907 -18.855 -18.853 -10.037  -9.987  -9.931  -9.926
 -9.920  -0.810  -0.774  -0.756  -0.687  -0.469  -0.454  -0.332
 -0.268  -0.241  -0.235  -0.227  -0.198  -0.164  -0.157  -0.153
 -0.145  -0.141  -0.063  -0.022  -0.020  -0.009  -0.003   0.008
  0.015   0.040   0.046

          Ground-State Mulliken Net Atomic Charges

     Atom                 Charge (a.u.)
  ----------------------------------------
      1 C                     0.588881
      2 O                    -0.655626
      3 O                    -0.591202
      4 C                     1.020217
      5 O                    -1.060501
      6 C                    -1.658450
      7 O                    -0.456205
      8 C                     0.757971
      9 H                     0.100699
     10 H                    -0.103898
     11 H                    -0.098017
     12 C                    -1.001149
     13 H                     0.494733
     14 H                     0.565428
     15 H                     0.097121
  ----------------------------------------
  Sum of atomic charges =    -2.000000

                    Cartesian Multipole Moments
 -----------------------------------------------------------------
    Charge (ESU x 10^10)
                -9.6064
    Dipole Moment (Debye)
         X       1.8171      Y       4.9942      Z      -0.5792
       Tot       5.3459
    Quadrupole Moments (Debye-Ang)
        XX    -128.7203     XY     -11.2339     YY    -102.6792
        XZ       1.0937     YZ       0.0557     ZZ     -77.0058

 Frequency:       -30.91                  20.23                  28.49
 Force Cnst:      0.0007                 0.0005                 0.0009
 Red. Mass:       1.2285                 1.9666                 1.9651
 IR Intens:        4.268                  1.489                  1.552
 Frequency:        32.07                  37.75                  39.92
 Force Cnst:      0.0017                 0.0011                 0.0012
 Red. Mass:       2.7600                 1.3172                 1.3029
 IR Intens:        3.300                  0.314                  2.166
 Frequency:        50.42                  60.10                  75.93
 Force Cnst:      0.0068                 0.0244                 0.0035
 Red. Mass:       4.5642                11.4525                 1.0213
 IR Intens:        0.943                 11.807                  0.182
 Frequency:        78.98                 122.99                 129.75
 Force Cnst:      0.0444                 0.0105                 0.1121
 Red. Mass:      12.0943                 1.1801                11.3043
 IR Intens:        1.753                  4.181                 19.007
 Frequency:       157.56                 168.66                 196.71
 Force Cnst:      0.0786                 0.2243                 0.2798
 Red. Mass:       5.3751                13.3846                12.2720
 IR Intens:       11.898                 40.721                  3.715
 Frequency:       254.79                 344.95                 378.42
 Force Cnst:      0.4640                 0.0723                 0.0855
 Red. Mass:      12.1320                 1.0310                 1.0131
 IR Intens:        9.363                 35.908                 17.840
 Frequency:       384.60                 391.51                 412.94
 Force Cnst:      0.0888                 0.0914                 0.1014
 Red. Mass:       1.0184                 1.0120                 1.0093
 IR Intens:       38.359                 16.276                  7.004
 Frequency:       447.28                 463.28                 470.62
 Force Cnst:      0.1214                 1.4488                 1.6137
 Red. Mass:       1.0303                11.4568                12.3659
 IR Intens:       30.439                  7.218                  0.344
 Frequency:       543.62                 564.63                 780.75
 Force Cnst:      2.1854                 2.4879                 4.1676
 Red. Mass:      12.5517                13.2448                11.6044
 IR Intens:        9.277                 14.794                 14.909
 Frequency:       814.66                 841.41                1190.37
 Force Cnst:      0.4208                 5.4193                11.3819
 Red. Mass:       1.0762                12.9920                13.6334
 IR Intens:      156.576                 10.753                 35.084
 Frequency:      1325.03                1565.75                1756.84
 Force Cnst:     14.0678                17.9341                 1.9754
 Red. Mass:      13.5997                12.4162                 1.0863
 IR Intens:      455.192                503.218                220.741
 Frequency:      1842.28                1913.90                3447.85
 Force Cnst:     24.4459                26.0754                 7.4353
 Red. Mass:      12.2249                12.0821                 1.0616
 IR Intens:      949.162                 56.157                508.372
 Frequency:      3731.11                4371.88                4375.83
 Force Cnst:      8.7395                11.3494                11.3700
 Red. Mass:       1.0655                 1.0078                 1.0078
 IR Intens:       16.586                 52.173                100.790

 STANDARD THERMODYNAMIC QUANTITIES AT   298.15 K  AND     1.00 ATM

   This Molecule has  1 Imaginary Frequencies
   Zero point vibrational energy:       48.339 kcal/mol

   Atom    1 Element C  Has Mass   12.00000
   Atom    2 Element O  Has Mass   15.99491
   Atom    3 Element O  Has Mass   15.99491
   Atom    4 Element C  Has Mass   12.00000
   Atom    5 Element O  Has Mass   15.99491
   Atom    6 Element C  Has Mass   12.00000
   Atom    7 Element O  Has Mass   15.99491
   Atom    8 Element C  Has Mass   12.00000
   Atom    9 Element H  Has Mass    1.00783
   Atom   10 Element H  Has Mass    1.00783
   Atom   11 Element H  Has Mass    1.00783
   Atom   12 Element C  Has Mass   12.00000
   Atom   13 Element H  Has Mass    1.00783
   Atom   14 Element H  Has Mass    1.00783
   Atom   15 Element H  Has Mass    1.00783
   Molecular Mass:   130.026620 amu
   Principal axes and moments of inertia in amu*Bohr^2:
                             1           2           3
    Eigenvalues --     1334.59323  2066.12360  2817.28538
          X               0.99462    -0.08553    -0.05849
          Y               0.09044     0.99208     0.08717
          Z               0.05058    -0.09199     0.99447
   Rotational Symmetry Number is   1
   The Molecule is an Asymmetric Top
   Translational Enthalpy:        0.889 kcal/mol
   Rotational Enthalpy:           0.889 kcal/mol
   Vibrational Enthalpy:         57.294 kcal/mol
   gas constant (RT):             0.592 kcal/mol
   Translational Entropy:        40.501  cal/mol.K
   Rotational Entropy:           30.430  cal/mol.K
   Vibrational Entropy:          70.149  cal/mol.K

   Total Enthalpy:               59.664 kcal/mol
   Total Entropy:               141.080  cal/mol.K

 Total job time:  2209.85s(wall), 2209.85s(cpu)
        *  Thank you very much for using Q-Chem.  Have a nice day.  *
