 Q-Chem 4.3, Q-Chem, Inc., Pleasanton, CA (2015)
 Q-Chem 4.3.0 for Intel X86 Linux

User input:
--------------------------------------------------------------
$rem
JOBTYPE SP
EXCHANGE B3LYP
BASIS 6-31G(d)
NBO TRUE
$end

$nbo
nbosum
$end

$molecule
0 1
C       -0.03200       -0.63000       -0.15000
C       -1.21300        0.38800       -0.24700
C       -1.15500        1.63200        0.66300
C        1.34500        0.18700        0.00600
C       -0.42900       -1.29600        1.25700
O        0.03000       -1.55100       -1.11100
O       -2.24000        0.21500       -0.90300
O        2.22900       -0.28600        0.78000
O        1.45900        1.23400       -0.70500
H       -0.25800        1.65400        1.28700
H       -1.14300        2.52100        0.02100
H       -2.05900        1.66200        1.29300
H       -1.19400       -2.04800        1.01900
H        0.47600       -1.76600        1.65200
H       -0.82800       -0.60400        2.02400
$end

--------------------------------------------------------------

             Standard Nuclear Orientation (Angstroms)
    I     Atom           X                Y                Z
 ----------------------------------------------------------------
    1      C       0.0792971944    -0.6221703204    -0.1745315951
    2      C      -1.2519222749     0.1928065146    -0.1100220381
    3      C      -1.2830759180     1.4306652350     0.8096166078
    4      C       1.3169231772     0.4055511287    -0.1695768226
    5      C      -0.0325183182    -1.3422166933     1.2571962114
    6      O       0.1702853535    -1.5219856998    -1.1531323503
    7      O      -2.3101255729    -0.1434366210    -0.6411908755
    8      O       2.3524305465     0.0813028031     0.4837596233
    9      O       1.1752160861     1.4567198286    -0.8693549765
   10      H      -0.3320261909     1.5969607383     1.3217876947
   11      H      -1.4911232926     2.3095529687     0.1876024268
   12      H      -2.0969993068     1.3155329989     1.5439797913
   13      H      -0.6909014274    -2.2075283424     1.0986388667
   14      H       0.9770596410    -1.6604214771     1.5318743135
   15      H      -0.4406838922    -0.7227145614     2.0793713587
 ----------------------------------------------------------------

   15    -494.8678264657      4.08E-06 Convergence criterion met
 Total energy in the final basis set = -494.8678264657

                    Orbital Energies (a.u.)
 --------------------------------------------------------------

 Alpha MOs
 -- Occupied --
-19.222 -19.220 -19.201 -19.194 -10.373 -10.353 -10.340 -10.239
-10.223  -1.110  -1.101  -1.051  -1.017  -0.822  -0.761  -0.691
 -0.624  -0.541  -0.522  -0.513  -0.497  -0.483  -0.476  -0.463
 -0.444  -0.437  -0.428  -0.418  -0.401  -0.351  -0.337  -0.322
 -0.308  -0.283

          Ground-State Mulliken Net Atomic Charges

     Atom                 Charge (a.u.)
  ----------------------------------------
      1 C                     0.211944
      2 C                     0.468492
      3 C                    -0.514358
      4 C                     0.633504
      5 C                    -0.502510
      6 O                    -0.337622
      7 O                    -0.352943
      8 O                    -0.395864
      9 O                    -0.406232
     10 H                     0.189209
     11 H                     0.225120
     12 H                     0.199329
     13 H                     0.196125
     14 H                     0.216173
     15 H                     0.169633
  ----------------------------------------
  Sum of atomic charges =     0.000000

                    Cartesian Multipole Moments
 -----------------------------------------------------------------
    Charge (ESU x 10^10)
                 0.0000
    Dipole Moment (Debye)
         X      -2.2588      Y       0.5949      Z       3.2557
       Tot       4.0069
    Quadrupole Moments (Debye-Ang)
        XX     -58.3090     XY      -3.5326     YY     -51.3150
        XZ      -3.3439     YZ      -0.5134     ZZ     -51.9133

 Total job time:  135.20s(wall), 105.41s(cpu)
        *  Thank you very much for using Q-Chem.  Have a nice day.  *
