 Q-Chem 4.3, Q-Chem, Inc., Pleasanton, CA (2015)
 Q-Chem 4.3.0 for Intel X86 Linux

User input:
--------------------------------------------------------------
$comment
Title
$end

$molecule
-2 1
C         3.465        -1.200          2.601
O         4.560        -1.461          2.068
O         3.273        -1.525          3.830
C         2.346        -0.585          1.791
C         1.972        -2.131          0.363
O         1.201        -0.363          2.379
C         2.491        -0.138          0.460
O         1.493         0.513         -0.063
C         3.826         0.103         -0.195
H         3.702        -0.082         -1.289
H         4.565        -0.673          0.179
H         4.167         1.091          0.224
H         1.093        -1.972         -0.390
H         1.667        -2.696          1.288
H         2.916        -2.475         -0.130
$end

$solvent
CavityRadius    30
Dielectric     78.39
$end

$molecule
READ
$end

$rem
jobtype          FREQ
exchange         b3lyp
basis            6-31+G(d)
pdb_print 2
SOLVENT_METHOD ONSAGER
NBO TRUE
$end

--------------------------------------------------------------

   17    -494.9764027668      6.95E-09 Convergence criterion met
 Total energy in the final basis set = -494.9764027668
 Frequency:      -347.36                -144.74                 120.91
 Force Cnst:      0.4522                 0.1329                 0.0515
 Red. Mass:       6.3604                10.7640                 5.9757
 IR Intens:      140.210                  0.173                  2.746
 Frequency:       231.09                 260.20                 312.96
 Force Cnst:      0.1068                 0.3671                 0.3149
 Red. Mass:       3.3937                 9.2026                 5.4574
 IR Intens:        8.659                 18.999                 32.003
 Frequency:       357.39                 435.68                 453.91
 Force Cnst:      0.2819                 0.8136                 0.6487
 Red. Mass:       3.7456                 7.2748                 5.3435
 IR Intens:        5.922                  4.669                 12.623
 Frequency:       479.51                 499.21                 530.89
 Force Cnst:      0.3866                 0.1836                 0.8439
 Red. Mass:       2.8539                 1.2504                 5.0819
 IR Intens:       22.418                 27.030                 71.661
 Frequency:       549.77                 578.99                 698.02
 Force Cnst:      0.2414                 0.7534                 1.4687
 Red. Mass:       1.3557                 3.8143                 5.1163
 IR Intens:       10.193                 27.103                 25.930
 Frequency:       785.95                 839.09                 921.89
 Force Cnst:      2.6816                 3.6863                 0.5958
 Red. Mass:       7.3681                 8.8863                 1.1899
 IR Intens:       29.802                 43.045                 25.825
 Frequency:       991.20                1031.35                1096.57
 Force Cnst:      0.7102                 1.5463                 1.4147
 Red. Mass:       1.2269                 2.4673                 1.9968
 IR Intens:        9.927                 40.367                 86.910
 Frequency:      1143.42                1171.72                1290.75
 Force Cnst:      1.1533                 0.9759                 6.4187
 Red. Mass:       1.4972                 1.2065                 6.5390
 IR Intens:        7.296                  4.873                194.969
 Frequency:      1352.08                1391.68                1409.99
 Force Cnst:      7.2120                 1.5407                 5.3704
 Red. Mass:       6.6958                 1.3502                 4.5848
 IR Intens:      159.673                 63.985                325.777
 Frequency:      1436.66                1469.83                1515.24
 Force Cnst:      1.5667                 1.3933                 1.4704
 Red. Mass:       1.2883                 1.0946                 1.0870
 IR Intens:       10.467                  0.107                  6.544
 Frequency:      1568.80                1596.31                1657.85
 Force Cnst:      2.0501                 4.2745                14.8965
 Red. Mass:       1.4138                 2.8471                 9.1991
 IR Intens:       88.052                205.562                391.880
 Frequency:      2479.47                2728.50                2789.67
 Force Cnst:      3.8461                 4.6524                 4.8703
 Red. Mass:       1.0618                 1.0607                 1.0622
 IR Intens:       57.022                 69.498                 60.789
 Frequency:      2810.34                2913.07                2916.96
 Force Cnst:      4.9453                 5.5298                 5.5547
 Red. Mass:       1.0627                 1.1060                 1.1080
 IR Intens:       53.042                 49.619                 84.784
 Total job time:  3008.52s(wall), 3007.72s(cpu)
        *  Thank you very much for using Q-Chem.  Have a nice day.  *
 Q-Chem 4.3, Q-Chem, Inc., Pleasanton, CA (2015)
 Q-Chem 4.3.0 for Intel X86 Linux

User input:
--------------------------------------------------------------

$molecule
READ
$end

$solvent
CavityRadius    30
Dielectric     78.39
$end

$rem
SOLVENT_METHOD ONSAGER
jobtype          TS
exchange         b3lyp
basis            6-31+G(d)
geom_opt_maxcyc  100
$end

--------------------------------------------------------------

   17    -494.9764027669      6.95E-09 Convergence criterion met
 Total energy in the final basis set = -494.9764027669
   12    -494.9771393002      5.07E-09 Convergence criterion met
 Total energy in the final basis set = -494.9771393002
   14    -494.9993700882      5.01E-09 Convergence criterion met
 Total energy in the final basis set = -494.9993700882
   13    -495.0048522304      9.96E-09 Convergence criterion met
 Total energy in the final basis set = -495.0048522304
   13    -495.0114950255      9.54E-09 Convergence criterion met
 Total energy in the final basis set = -495.0114950255
   14    -495.0148831973      3.76E-09 Convergence criterion met
 Total energy in the final basis set = -495.0148831973
   13    -495.0163756365      8.55E-09 Convergence criterion met
   13    -495.0449672182      5.75E-09 Convergence criterion met
 Total energy in the final basis set = -495.0449672182
   12    -495.0450445950      8.95E-09 Convergence criterion met
 Total energy in the final basis set = -495.0450445950
   10    -495.0450463004      7.25E-09 Convergence criterion met
 Total energy in the final basis set = -495.0450463004
   12    -495.0449613665      9.57E-09 Convergence criterion met
 Total energy in the final basis set = -495.0449613665
   13    -495.0450465808      4.58E-09 Convergence criterion met
 Total energy in the final basis set = -495.0450465808
   10    -495.0450472848      6.90E-09 Convergence criterion met
 Total energy in the final basis set = -495.0450472848
 Final energy is   -495.045047284802
 **  OPTIMIZATION CONVERGED  **
        *  Thank you very much for using Q-Chem.  Have a nice day.  *
 Q-Chem 4.3, Q-Chem, Inc., Pleasanton, CA (2015)
 Q-Chem 4.3.0 for Intel X86 Linux

User input:
--------------------------------------------------------------

$solvent
CavityRadius    30
Dielectric     78.39
$end

$molecule
READ
$end

$rem
jobtype          FREQ
exchange         b3lyp
basis            6-31+G(d)
pdb_print 2
NBO TRUE
SOLVENT_METHOD ONSAGER
$end
--------------------------------------------------------------

             Standard Nuclear Orientation (Angstroms)
    I     Atom           X                Y                Z
 ----------------------------------------------------------------
    1      C       1.6150601332     0.2519485307     0.0003457514
    2      O       1.4538441748     1.5072266141     0.0061875112
    3      O       2.7060050592    -0.3769003756    -0.0076662351
    4      C       0.2810584150    -0.6693266216     0.0030583102
    5      C      -1.2899165401     0.8617992634    -1.2756769508
    6      O       0.4350080488    -1.8797983310     0.0080538658
    7      C      -1.2013966183    -0.0622277958    -0.0010314888
    8      O      -2.1703433410    -0.9877507230    -0.0003530946
    9      C      -1.2931172649     0.8687190432     1.2690736734
   10      H      -2.2983930464     1.3197388200     1.2656921511
   11      H      -0.5230791535     1.6497534771     1.2970889692
   12      H      -1.2172787845     0.2401619088     2.1692005823
   13      H      -2.2971619722     1.3079943721    -1.2803728875
   14      H      -1.2070197822     0.2285852232    -2.1719312927
   15      H      -0.5233075463     1.6460742034    -1.3040696728
 ----------------------------------------------------------------

   17    -495.0450883035      5.92E-09 Convergence criterion met
 Total energy in the final basis set = -495.0450883035

                    Orbital Energies (a.u.)
 --------------------------------------------------------------

 Alpha MOs
 -- Occupied --
-18.844 -18.801 -18.799 -18.738  -9.975  -9.957  -9.928  -9.886
 -9.886  -0.740  -0.714  -0.636  -0.612  -0.442  -0.392  -0.323
 -0.240  -0.173  -0.150  -0.145  -0.131  -0.117  -0.114  -0.105
 -0.088  -0.072  -0.060  -0.042  -0.031   0.015   0.047   0.061
  0.080   0.116   0.122

          Ground-State Mulliken Net Atomic Charges

     Atom                 Charge (a.u.)
  ----------------------------------------
      1 C                     0.337253
      2 O                    -0.605660
      3 O                    -0.622546
      4 C                     0.275724
      5 C                    -0.642088
      6 O                    -0.420965
      7 C                    -0.120734
      8 O                    -0.665866
      9 C                    -0.641781
     10 H                     0.159715
     11 H                     0.218457
     12 H                     0.175253
     13 H                     0.160305
     14 H                     0.175412
     15 H                     0.217522
  ----------------------------------------
  Sum of atomic charges =    -2.000000

                    Cartesian Multipole Moments
 -----------------------------------------------------------------
    Charge (ESU x 10^10)
                -9.6064
    Dipole Moment (Debye)
         X      -0.3766      Y       2.2465      Z      -0.0013
       Tot       2.2778
    Quadrupole Moments (Debye-Ang)
        XX    -111.7671     XY      -8.5115     YY     -83.4090
        XZ       0.0432     YZ      -0.0163     ZZ     -64.2718

 Frequency:       -62.94                  85.93                 198.00
 Force Cnst:      0.0295                 0.0242                 0.0358
 Red. Mass:      12.6316                 5.5734                 1.5517
 IR Intens:        0.766                  1.709                  3.201
 Frequency:       201.59                 247.70                 250.22
 Force Cnst:      0.1260                 0.0570                 0.0450
 Red. Mass:       5.2620                 1.5760                 1.2205
 IR Intens:        7.945                  3.474                  1.129
 Frequency:       288.84                 331.02                 357.89
 Force Cnst:      0.1531                 0.5212                 0.3130
 Red. Mass:       3.1151                 8.0741                 4.1476
 IR Intens:        0.033                  1.390                  1.701
 Frequency:       401.61                 436.09                 525.50
 Force Cnst:      0.5375                 0.4962                 0.6242
 Red. Mass:       5.6563                 4.4287                 3.8366
 IR Intens:        1.207                 16.186                  4.442
 Frequency:       536.95                 601.87                 766.01
 Force Cnst:      1.0848                 1.0258                 4.5205
 Red. Mass:       6.3864                 4.8064                13.0757
 IR Intens:        6.055                 14.534                 76.906
 Frequency:       788.04                 810.73                 857.89
 Force Cnst:      1.9372                 1.1957                 0.8891
 Red. Mass:       5.2945                 3.0875                 2.0505
 IR Intens:        4.698                  1.842                 30.700
 Frequency:       937.76                 989.56                1029.85
 Force Cnst:      3.5538                 0.7806                 1.1803
 Red. Mass:       6.8589                 1.3530                 1.8888
 IR Intens:       55.315                  5.203                 58.546
 Frequency:      1112.87                1160.52                1244.16
 Force Cnst:      1.8597                 1.7047                 4.4503
 Red. Mass:       2.5486                 2.1483                 4.8797
 IR Intens:       56.004                  8.178                213.762
 Frequency:      1328.55                1332.44                1352.75
 Force Cnst:      9.4412                 1.2583                 1.3826
 Red. Mass:       9.0787                 1.2029                 1.2823
 IR Intens:      127.636                 23.130                 57.727
 Frequency:      1482.81                1495.36                1500.57
 Force Cnst:      1.3606                 1.3946                 1.4034
 Red. Mass:       1.0503                 1.0586                 1.0578
 IR Intens:        0.320                 14.245                  1.316
 Frequency:      1516.51                1644.89                1735.37
 Force Cnst:      1.4307                18.1786                23.3057
 Red. Mass:       1.0559                11.4035                13.1350
 IR Intens:        6.442                507.688                273.699
 Frequency:      2980.46                2988.34                3038.38
 Force Cnst:      5.4218                 5.4475                 5.9775
 Red. Mass:       1.0359                 1.0354                 1.0990
 IR Intens:       93.384                145.521                 70.887
 Frequency:      3044.76                3089.20                3096.24
 Force Cnst:      5.9930                 6.1858                 6.2076
 Red. Mass:       1.0972                 1.1001                 1.0990
 IR Intens:      103.712                  2.892                 89.974

 STANDARD THERMODYNAMIC QUANTITIES AT   298.15 K  AND     1.00 ATM

   This Molecule has  1 Imaginary Frequencies
   Zero point vibrational energy:       65.456 kcal/mol

   Atom    1 Element C  Has Mass   12.00000
   Atom    2 Element O  Has Mass   15.99491
   Atom    3 Element O  Has Mass   15.99491
   Atom    4 Element C  Has Mass   12.00000
   Atom    5 Element C  Has Mass   12.00000
   Atom    6 Element O  Has Mass   15.99491
   Atom    7 Element C  Has Mass   12.00000
   Atom    8 Element O  Has Mass   15.99491
   Atom    9 Element C  Has Mass   12.00000
   Atom   10 Element H  Has Mass    1.00783
   Atom   11 Element H  Has Mass    1.00783
   Atom   12 Element H  Has Mass    1.00783
   Atom   13 Element H  Has Mass    1.00783
   Atom   14 Element H  Has Mass    1.00783
   Atom   15 Element H  Has Mass    1.00783
   Molecular Mass:   130.026620 amu
   Principal axes and moments of inertia in amu*Bohr^2:
                             1           2           3
    Eigenvalues --      708.06392  1385.53735  1700.56814
          X               0.99896    -0.04560     0.00006
          Y               0.04560     0.99896     0.00013
          Z              -0.00007    -0.00013     1.00000
   Rotational Symmetry Number is   1
   The Molecule is an Asymmetric Top
   Translational Enthalpy:        0.889 kcal/mol
   Rotational Enthalpy:           0.889 kcal/mol
   Vibrational Enthalpy:         69.042 kcal/mol
   gas constant (RT):             0.592 kcal/mol
   Translational Entropy:        40.501  cal/mol.K
   Rotational Entropy:           28.902  cal/mol.K
   Vibrational Entropy:          20.164  cal/mol.K

   Total Enthalpy:               71.412 kcal/mol
   Total Entropy:                89.566  cal/mol.K

 Total job time:  2947.38s(wall), 2947.27s(cpu)
        *  Thank you very much for using Q-Chem.  Have a nice day.  *
