 Q-Chem 4.3, Q-Chem, Inc., Pleasanton, CA (2015)
 Q-Chem 4.3.0 for Intel X86 Linux

User input:
--------------------------------------------------------------
$rem
JOBTYPE sp
EXCHANGE B3LYP
BASIS 6-31+G(d)
GUI=2
SOLVENT_METHOD ONSAGER
pdb_print 2
NBO TRUE
$end

$nbo
nbosum
$end

$solvent
CavityRadius    30
Dielectric     78.39
$end

$molecule
-2 1
C         1.493   0.181  -0.372
O         1.850   1.309   0.078
O         1.989  -0.465  -1.337
C         0.307  -0.497   0.373
C        -1.256   0.448  -1.424
O         0.566  -1.315   1.254
C        -1.205  -0.097   0.045
O        -2.095  -1.079   0.249
C        -1.463   1.139   0.999
H        -2.483   1.502   0.793
H        -0.739   1.957   0.871
H        -1.427   0.784   2.038
H        -1.058  -0.374  -2.122
H        -0.541   1.259  -1.628
H        -2.280   0.812  -1.602
$end

--------------------------------------------------------------

             Standard Nuclear Orientation (Angstroms)
    I     Atom           X                Y                Z
 ----------------------------------------------------------------
    1      C      -1.5775396796     0.1028614351    -0.0387217671
    2      O      -1.8965804704     0.4862962776    -1.2021321398
    3      O      -2.2146004130     0.2704411694     1.0386025362
    4      C      -0.2423959562    -0.6892719097     0.0672074640
    5      C       0.9100183094     1.5007039897     0.7313986417
    6      O      -0.2929666818    -1.9178799084     0.0490144079
    7      C       1.1608501874     0.0722032730     0.1363725319
    8      O       2.1185132685    -0.5895446952     0.8019632843
    9      C       1.5345716285     0.2726208027    -1.3882720490
   10      H       2.4796834463     0.8386155345    -1.4201878044
   11      H       0.7617376403     0.7968156989    -1.9693325773
   12      H       1.7106174092    -0.7170463318    -1.8314524255
   13      H       0.6236501725     1.4083725091     1.7857041894
   14      H       0.1321050416     2.0759954253     0.2075162963
   15      H       1.8642537264     2.0480388722     0.6802586838
 ----------------------------------------------------------------

   11    -495.0533288904      9.16E-06 Convergence criterion met
 Total energy in the final basis set = -495.0533288904

                    Orbital Energies (a.u.)
 --------------------------------------------------------------

 Alpha MOs
 -- Occupied --
-18.842 -18.806 -18.805 -18.742  -9.976  -9.960  -9.932  -9.892
 -9.888  -0.740  -0.714  -0.640  -0.616  -0.449  -0.396  -0.336
 -0.249  -0.177  -0.155  -0.144  -0.133  -0.125  -0.114  -0.106
 -0.089  -0.071  -0.066  -0.046  -0.033   0.008   0.042   0.057
  0.073   0.113   0.122

          Ground-State Mulliken Net Atomic Charges

     Atom                 Charge (a.u.)
  ----------------------------------------
      1 C                     0.185929
      2 O                    -0.589390
      3 O                    -0.596316
      4 C                     0.392921
      5 C                    -0.624051
      6 O                    -0.469680
      7 C                    -0.128841
      8 O                    -0.664033
      9 C                    -0.610563
     10 H                     0.159946
     11 H                     0.202842
     12 H                     0.191718
     13 H                     0.201832
     14 H                     0.187981
     15 H                     0.159706
  ----------------------------------------
  Sum of atomic charges =    -2.000000

                    Cartesian Multipole Moments
 -----------------------------------------------------------------
    Charge (ESU x 10^10)
                -9.6064
    Dipole Moment (Debye)
         X       0.3801      Y       1.8210      Z      -1.7424
       Tot       2.5488
    Quadrupole Moments (Debye-Ang)
        XX    -106.8564     XY       7.6821     YY     -74.8890
        XZ      -5.2214     YZ       2.6852     ZZ     -75.4535

 Total job time:  182.36s(wall), 151.13s(cpu)
        *  Thank you very much for using Q-Chem.  Have a nice day.  *
