 Q-Chem 4.3, Q-Chem, Inc., Pleasanton, CA (2015)
 Q-Chem 4.3.0 for Intel X86 Linux

User input:
--------------------------------------------------------------
$comment
Title
$end

$molecule
-2 1
C         1.886        -0.049          0.569
O         2.443         0.525         -0.394
O         2.387        -0.140          1.732
C         0.467        -0.818          0.586
O        -0.071        -0.784         -1.399
C         0.488        -1.930          1.184
O        -0.879        -0.160          0.518
C        -1.916        -0.793          0.880
H        -1.080         1.361          0.349
H        -0.817         1.766         -0.634
H        -0.496         1.911          1.102
C        -2.151         1.531          0.536
H        -0.569        -1.746         -1.515
H         0.941        -0.773         -1.812
H        -0.655        -0.006         -1.924
$end

$solvent
CavityRadius    30
Dielectric     78.39
$end

$rem
JOBTYPE FREQ
EXCHANGE b3lyp
BASIS 6-31+G(d)
GUI=2
SOLVENT_METHOD ONSAGER
$end

--------------------------------------------------------------

   27    -494.1802990800      8.18E-09 Convergence criterion met
 Total energy in the final basis set = -494.1802990800
 Frequency:     -1614.70               -1206.58               -1082.78
 Force Cnst:      1.6168                 1.0183                 1.1853
 Red. Mass:       1.0525                 1.1872                 1.7160
 IR Intens:      327.730               2208.858                719.177
 Frequency:      -694.62                -596.75                -489.77
 Force Cnst:      0.6987                 0.3613                 0.2416
 Red. Mass:       2.4576                 1.7218                 1.7097
 IR Intens:     1176.496                141.309                135.631
 Frequency:      -258.57                -228.65                -208.49
 Force Cnst:      0.3196                 0.0426                 0.1428
 Red. Mass:       8.1122                 1.3822                 5.5774
 IR Intens:       21.004                  5.334                 10.951
 Frequency:      -162.52                 -78.06                  99.78
 Force Cnst:      0.0950                 0.0236                 0.0446
 Red. Mass:       6.1050                 6.5618                 7.6051
 IR Intens:        9.814                  8.870                  3.103
 Frequency:       153.97                 229.45                 266.25
 Force Cnst:      0.0904                 0.1767                 0.1546
 Red. Mass:       6.4710                 5.6956                 3.7021
 IR Intens:        9.081                 31.958                 18.300
 Frequency:       326.00                 422.19                 461.31
 Force Cnst:      0.3827                 0.5675                 0.3580
 Red. Mass:       6.1123                 5.4038                 2.8550
 IR Intens:       37.584                 19.112                152.670
 Frequency:       474.18                 546.77                 591.33
 Force Cnst:      0.6950                 0.2382                 1.6884
 Red. Mass:       5.2461                 1.3525                 8.1951
 IR Intens:       21.216                 72.536                 65.675
 Frequency:       668.56                 733.54                 744.50
 Force Cnst:      0.2919                 0.5981                 0.7431
 Red. Mass:       1.1083                 1.8867                 2.2753
 IR Intens:        4.548                 59.868                200.845
 Frequency:       769.96                 883.01                 939.20
 Force Cnst:      2.9692                 0.5388                 0.6084
 Red. Mass:       8.5007                 1.1728                 1.1705
 IR Intens:        5.479                308.522                104.680
 Frequency:       955.51                1079.16                1259.79
 Force Cnst:      0.7974                 2.4090                 1.0341
 Red. Mass:       1.4823                 3.5108                 1.1059
 IR Intens:      549.257                 73.255                 26.655
 Frequency:      1262.49                1309.57                1425.10
 Force Cnst:      8.2730                 1.0741                 1.3121
 Red. Mass:       8.8096                 1.0630                 1.0966
 IR Intens:      317.887                346.708                713.086
 Frequency:      1528.92                1609.62                1817.98
 Force Cnst:      1.5591                15.9474                 2.2418
 Red. Mass:       1.1321                10.4470                 1.1513
 IR Intens:       72.173                233.721                281.058
 Frequency:      1874.37                2096.32                2524.77
 Force Cnst:     17.8024                 2.7587                 4.2116
 Red. Mass:       8.6004                 1.0655                 1.1214
 IR Intens:      136.837                839.858                684.496
 Total job time:  3106.59s(wall), 3107.74s(cpu)
        *  Thank you very much for using Q-Chem.  Have a nice day.  *
 Q-Chem 4.3, Q-Chem, Inc., Pleasanton, CA (2015)
 Q-Chem 4.3.0 for Intel X86 Linux

User input:
--------------------------------------------------------------

$molecule
READ
$end

$solvent
CavityRadius    30
Dielectric     78.39
$end

$rem
jobtype          TS
exchange         b3lyp
basis            6-31+G(d)
geom_opt_hessian READ
geom_opt_maxcyc  100
SOLVENT_METHOD ONSAGER
$end

--------------------------------------------------------------

   27    -494.1802990800      8.18E-09 Convergence criterion met
 Total energy in the final basis set = -494.1802990800
   23    -494.2073237748      8.66E-09 Convergence criterion met
 Total energy in the final basis set = -494.2073237748
   28    -494.2350461529      9.07E-09 Convergence criterion met
 Total energy in the final basis set = -494.2350461529
   28    -494.2654672430      3.18E-09 Convergence criterion met
 Total energy in the final basis set = -494.2654672430
   22    -494.2921293980      5.04E-09 Convergence criterion met
 Total energy in the final basis set = -494.2921293980
   20    -494.3196518357      9.70E-09 Convergence criterion met
 Total energy in the final basis set = -494.3196518357
   19    -494.3465261737      4.41E-09 Convergence criterion met
 Total energy in the final basis set = -494.7976130459
   14    -494.7994466802      8.24E-09 Convergence criterion met
 Total energy in the final basis set = -494.7994466802
   15    -494.8010641819      5.35E-09 Convergence criterion met
 Total energy in the final basis set = -494.8010641819
   14    -494.8016158530      6.62E-09 Convergence criterion met
 Total energy in the final basis set = -494.8016158530
   15    -494.8011200478      3.28E-09 Convergence criterion met
 Total energy in the final basis set = -494.8011200478
   14    -494.8006288794      4.95E-09 Convergence criterion met
 Total energy in the final basis set = -494.8006288794
   14    -494.8009851402      8.47E-09 Convergence criterion met
 Total energy in the final basis set = -494.8009851402
 Q-Chem 4.3, Q-Chem, Inc., Pleasanton, CA (2015)
 Q-Chem 4.3.0 for Intel X86 Linux

User input:
--------------------------------------------------------------

$molecule
READ
$end

$solvent
CavityRadius    30
Dielectric     78.39
$end

$rem
jobtype          FREQ
exchange         b3lyp
basis            6-31+G(d)
pdb_print 2
SOLVENT_METHOD ONSAGER
$end
--------------------------------------------------------------

             Standard Nuclear Orientation (Angstroms)
    I     Atom           X                Y                Z
 ----------------------------------------------------------------
    1      C       2.4606228378     0.2707369450     0.3839380447
    2      O       1.9940619764     1.2955499057    -0.4098003410
    3      O       3.3046458467     0.5430839236     1.2321666173
    4      C       1.9155114648    -1.0268522811     0.1010906703
    5      O      -0.2065009055     0.2349562431    -1.7858726984
    6      C       1.3675284421    -2.0718215300    -0.3118412249
    7      O      -2.2300769992    -0.7573803762     0.4754310465
    8      C      -3.4246560200    -0.6068085814     0.4513940973
    9      H      -3.9923290781     0.9308017695     1.3918989204
   10      H      -3.7286744074     1.1266442311    -0.4632973539
   11      H      -3.4818317118     2.4573823373     0.5397267190
   12      C      -4.3369159148     0.7686555860     0.3689827356
   13      H       0.1157871817    -0.5610975475    -1.2924208895
   14      H       1.2493954464     0.9843259783    -0.9847659191
   15      H      -0.9519316373     0.5288048315    -1.2479244097
 ----------------------------------------------------------------

   16    -494.8008176065      7.86E-09 Convergence criterion met
 Total energy in the final basis set = -494.8008176065

                    Orbital Energies (a.u.)
 --------------------------------------------------------------

 Alpha MOs
 -- Occupied --
-18.950 -18.946 -18.935 -18.899 -10.088 -10.041  -9.936  -9.909
 -9.905  -0.847  -0.833  -0.789  -0.765  -0.486  -0.458  -0.382
 -0.333  -0.300  -0.273  -0.212  -0.204  -0.198  -0.176  -0.162
 -0.159  -0.152  -0.132  -0.094  -0.076  -0.050  -0.007  -0.007
  0.006   0.036   0.065

          Ground-State Mulliken Net Atomic Charges

     Atom                 Charge (a.u.)
  ----------------------------------------
      1 C                     0.410263
      2 O                    -0.678185
      3 O                    -0.554446
      4 C                     1.510206
      5 O                    -1.042379
      6 C                    -2.210891
      7 O                    -0.284556
      8 C                    -0.406975
      9 H                     0.234462
     10 H                     0.235192
     11 H                    -0.132791
     12 C                    -0.637031
     13 H                     0.481177
     14 H                     0.556759
     15 H                     0.519194
  ----------------------------------------
  Sum of atomic charges =    -2.000000

                    Cartesian Multipole Moments
 -----------------------------------------------------------------
    Charge (ESU x 10^10)
                -9.6064
    Dipole Moment (Debye)
         X       7.5612      Y      -0.1301      Z      -1.5923
       Tot       7.7282
    Quadrupole Moments (Debye-Ang)
        XX    -179.6954     XY      19.8041     YY    -100.3568
        XZ      -0.5777     YZ      -5.1847     ZZ     -72.4275

 Frequency:      -928.41                -359.72                 -94.51
 Force Cnst:      1.1545                 0.0841                 0.0128
 Red. Mass:       2.2733                 1.1029                 2.4393
 IR Intens:      258.083                101.051                 37.337
 Frequency:         6.77                  52.11                  62.70
 Force Cnst:      0.0003                 0.0057                 0.0129
 Red. Mass:       9.3992                 3.5469                 5.5487
 IR Intens:        3.294                 53.820                 19.830
 Frequency:        75.99                  80.23                 141.91
 Force Cnst:      0.0176                 0.0147                 0.0247
 Red. Mass:       5.1716                 3.8720                 2.0817
 IR Intens:       28.151                 23.922                100.532
 Frequency:       155.05                 165.03                 171.47
 Force Cnst:      0.0994                 0.0367                 0.0457
 Red. Mass:       7.0148                 2.2859                 2.6400
 IR Intens:       49.113                 44.403                224.628
 Frequency:       217.20                 225.33                 272.67
 Force Cnst:      0.1472                 0.3410                 0.0784
 Red. Mass:       5.2954                11.3988                 1.7908
 IR Intens:       23.949                  7.862                 46.516
 Frequency:       384.12                 401.95                 527.92
 Force Cnst:      0.1295                 0.1072                 0.2550
 Red. Mass:       1.4896                 1.1263                 1.5529
 IR Intens:      228.343                 91.383                129.598
 Frequency:       565.01                 603.44                 640.49
 Force Cnst:      1.5464                 1.9181                 0.6695
 Red. Mass:       8.2217                 8.9406                 2.7699
 IR Intens:       13.128                  4.701                 25.187
 Frequency:       766.76                 795.71                 822.76
 Force Cnst:      3.3258                 0.4401                 0.7331
 Red. Mass:       9.6013                 1.1798                 1.8380
 IR Intens:       54.539                151.310                132.835
 Frequency:       847.74                 907.00                 997.28
 Force Cnst:      3.1296                 0.5140                 0.6353
 Red. Mass:       7.3913                 1.0604                 1.0842
 IR Intens:       50.653                 79.758                308.217
 Frequency:      1122.21                1158.95                1405.23
 Force Cnst:      0.8042                 5.3281                 1.4530
 Red. Mass:       1.0838                 6.7328                 1.2489
 IR Intens:      117.839                332.072                271.825
 Frequency:      1683.03                1726.15                1732.03
 Force Cnst:      2.5897                 4.7122                13.6551
 Red. Mass:       1.5517                 2.6842                 7.7257
 IR Intens:      503.700                400.352                475.437
 Frequency:      2064.95                3067.49                3236.45
 Force Cnst:     29.9177                 5.7366                 6.9408
 Red. Mass:      11.9086                 1.0348                 1.1247
 IR Intens:      280.553                 56.619                 49.512
 Frequency:      3340.87                3437.34                3855.40
 Force Cnst:      7.0309                 7.3993                 9.3357
 Red. Mass:       1.0692                 1.0629                 1.0660
 IR Intens:      134.442               1002.711                145.173

 STANDARD THERMODYNAMIC QUANTITIES AT   298.15 K  AND     1.00 ATM

   This Molecule has  3 Imaginary Frequencies
   Zero point vibrational energy:       53.919 kcal/mol

   Atom    1 Element C  Has Mass   12.00000
   Atom    2 Element O  Has Mass   15.99491
   Atom    3 Element O  Has Mass   15.99491
   Atom    4 Element C  Has Mass   12.00000
   Atom    5 Element O  Has Mass   15.99491
   Atom    6 Element C  Has Mass   12.00000
   Atom    7 Element O  Has Mass   15.99491
   Atom    8 Element C  Has Mass   12.00000
   Atom    9 Element H  Has Mass    1.00783
   Atom   10 Element H  Has Mass    1.00783
   Atom   11 Element H  Has Mass    1.00783
   Atom   12 Element C  Has Mass   12.00000
   Atom   13 Element H  Has Mass    1.00783
   Atom   14 Element H  Has Mass    1.00783
   Atom   15 Element H  Has Mass    1.00783
   Molecular Mass:   130.026620 amu
   Principal axes and moments of inertia in amu*Bohr^2:
                             1           2           3
    Eigenvalues --      795.50975  3441.40795  3556.20805
          X               0.99974    -0.02143    -0.00813
          Y               0.02173     0.99905     0.03784
          Z               0.00731    -0.03801     0.99925
   Rotational Symmetry Number is   1
   The Molecule is an Asymmetric Top
   Translational Enthalpy:        0.889 kcal/mol
   Rotational Enthalpy:           0.889 kcal/mol
   Vibrational Enthalpy:         60.142 kcal/mol
   gas constant (RT):             0.592 kcal/mol
   Translational Entropy:        40.501  cal/mol.K
   Rotational Entropy:           30.655  cal/mol.K
   Vibrational Entropy:          46.636  cal/mol.K

   Total Enthalpy:               62.512 kcal/mol
   Total Entropy:               117.791  cal/mol.K

 Total job time:  2136.75s(wall), 2136.91s(cpu)
        *  Thank you very much for using Q-Chem.  Have a nice day.  *
