 Q-Chem 4.3, Q-Chem, Inc., Pleasanton, CA (2015)
 Q-Chem 4.3.0 for Intel X86 Linux

User input:
--------------------------------------------------------------
$rem
EXCHANGE         B3LYP
BASIS            6-31G(d)
PRINT_ORBITALS   true
MOLDEN_FORMAT    true
$end

$molecule
-2 1
C       -0.03200       -0.63000       -0.15000
C       -1.21300        0.38800       -0.24700
C       -1.15500        1.63200        0.66300
C        1.34500        0.18700        0.00600
C       -0.42900       -1.29600        1.25700
O        0.03000       -1.55100       -1.11100
O       -2.24000        0.21500       -0.90300
O        2.22900       -0.28600        0.78000
O        1.45900        1.23400       -0.70500
H       -0.25800        1.65400        1.28700
H       -1.14300        2.52100        0.02100
H       -2.05900        1.66200        1.29300
H       -1.19400       -2.04800        1.01900
H        0.47600       -1.76600        1.65200
H       -0.82800       -0.60400        2.02400
$end
--------------------------------------------------------------

             Standard Nuclear Orientation (Angstroms)
    I     Atom           X                Y                Z
 ----------------------------------------------------------------
    1      C       0.0792971944    -0.6221703204    -0.1745315951
    2      C      -1.2519222749     0.1928065146    -0.1100220381
    3      C      -1.2830759180     1.4306652350     0.8096166078
    4      C       1.3169231772     0.4055511287    -0.1695768226
    5      C      -0.0325183182    -1.3422166933     1.2571962114
    6      O       0.1702853535    -1.5219856998    -1.1531323503
    7      O      -2.3101255729    -0.1434366210    -0.6411908755
    8      O       2.3524305465     0.0813028031     0.4837596233
    9      O       1.1752160861     1.4567198286    -0.8693549765
   10      H      -0.3320261909     1.5969607383     1.3217876947
   11      H      -1.4911232926     2.3095529687     0.1876024268
   12      H      -2.0969993068     1.3155329989     1.5439797913
   13      H      -0.6909014274    -2.2075283424     1.0986388667
   14      H       0.9770596410    -1.6604214771     1.5318743135
   15      H      -0.4406838922    -0.7227145614     2.0793713587
 ----------------------------------------------------------------

   11    -494.9069186946      6.86E-06 Convergence criterion met
 Total energy in the final basis set = -494.9069186946

                    Orbital Energies (a.u.)
 --------------------------------------------------------------

 Alpha MOs
 -- Occupied --
-18.801 -18.712 -18.709 -18.653  -9.928  -9.890  -9.886  -9.858
 -9.844  -0.694  -0.636  -0.548  -0.537  -0.431  -0.372  -0.273
 -0.184  -0.142  -0.133  -0.113  -0.093  -0.082  -0.074  -0.048
 -0.033  -0.020  -0.007  -0.001   0.035   0.085   0.119   0.128
  0.147   0.190   0.204

          Ground-State Mulliken Net Atomic Charges

     Atom                 Charge (a.u.)
  ----------------------------------------
      1 C                     0.353539
      2 C                     0.415167
      3 C                    -0.480610
      4 C                     0.488332
      5 C                    -0.482446
      6 O                    -0.820200
      7 O                    -0.573067
      8 O                    -0.690211
      9 O                    -0.698298
     10 H                     0.148669
     11 H                     0.102359
     12 H                     0.051030
     13 H                     0.057725
     14 H                     0.104988
     15 H                     0.023024
  ----------------------------------------
  Sum of atomic charges =    -2.000000

                    Cartesian Multipole Moments
 -----------------------------------------------------------------
    Charge (ESU x 10^10)
                -9.6064
    Dipole Moment (Debye)
         X      -4.1262      Y       1.9890      Z       4.1831
       Tot       6.2032
    Quadrupole Moments (Debye-Ang)
        XX     -87.2274     XY      -4.5310     YY     -73.5302
        XZ      -2.5135     YZ      -1.8502     ZZ     -67.6779

 Total job time:  95.45s(wall), 102.62s(cpu)
        *  Thank you very much for using Q-Chem.  Have a nice day.  *
