 Q-Chem 4.3, Q-Chem, Inc., Pleasanton, CA (2015)
 Q-Chem 4.3.0 for Intel X86 Linux

User input:
--------------------------------------------------------------
$molecule
-2  1
C    1.35512    0.24856    0.05375
O    2.27165    0.28205   -0.81892
O    1.34849    0.87446    1.16033
C    0.08172   -0.70564   -0.22505
C   -0.23234   -0.67952   -1.78702
O    0.25529   -1.95905    0.19710
C   -1.14986    0.04089    0.39636
O   -2.00650   -0.48389    1.10351
C   -1.35768    1.53048    0.03921
H   -0.54876    1.94551   -0.56627
H   -1.41925    2.09973    0.97462
H   -2.31621    1.63320   -0.49557
H   -1.08467   -1.35061   -1.97546
H    0.66593   -1.07579   -2.27135
H   -0.44210    0.31716   -2.21651
****
C    1.49359    0.18061   -0.37340
O    1.85107    1.30908    0.07644
O    1.98900   -0.46709   -1.33776
C    0.30764   -0.49664    0.37390
C   -1.25656    0.44853   -1.42479
O    0.56631   -1.31397    1.25524
C   -1.20491   -0.09795    0.04578
O   -2.09503   -1.08026    0.24898
C   -1.46406    1.13910    1.00013
H   -2.48418    1.50190    0.79401
H   -0.73990    1.95758    0.87164
H   -1.42839    0.78409    2.03853
H   -1.05833   -0.37419   -2.12310
H   -0.54175    1.26041   -1.62810
H   -2.28010    0.81304   -1.60264
$end

$rem
jobtype         fsm
fsm_ngrad       3
fsm_nnode       12
fsm_mode     2
fsm_opt_mode 2
method          b3lyp
basis           6-31+G(d)
--------------------------------------------------------------

   18    -495.0016493818      2.09E-09 Convergence criterion met
 Total energy in the final basis set = -495.0016493818
   18    -495.0016493820      2.09E-09 Convergence criterion met
 Total energy in the final basis set = -495.0016493820
   18    -495.0184446410      3.09E-09 Convergence criterion met
 Total energy in the final basis set = -495.0184446410
   17    -494.9912920211      9.32E-09 Convergence criterion met
 Total energy in the final basis set = -494.9912920211
   17    -494.9937269761      8.17E-09 Convergence criterion met
 Total energy in the final basis set = -494.9937269761
   17    -495.0059963845      9.79E-09 Convergence criterion met
 Total energy in the final basis set = -495.0059963845
   18    -495.0101926288      3.14E-09 Convergence criterion met
 Total energy in the final basis set = -495.0101926288
   18    -494.9772823457      2.73E-09 Convergence criterion met
 Total energy in the final basis set = -494.9613894082
   17    -494.9615376412      7.39E-09 Convergence criterion met
 Total energy in the final basis set = -494.9615376412
   17    -494.9614049546      7.34E-09 Convergence criterion met
 Total energy in the final basis set = -494.9614049546
   17    -494.9615222798      7.39E-09 Convergence criterion met
 Total energy in the final basis set = -494.9615222798
   17    -494.9614192507      7.34E-09 Convergence criterion met
 Total energy in the final basis set = -494.9614192507
   17    -494.9615081440      7.40E-09 Convergence criterion met
 Total energy in the final basis set = -494.9615081440
   17    -494.9614376063      7.33E-09 Convergence criterion met
 Total energy in the final basis set = -494.9614376063
   17    -494.9614900234      7.40E-09 Convergence criterion met
 Total energy in the final basis set = -494.9614900234

                    Orbital Energies (a.u.)
 --------------------------------------------------------------

 Alpha MOs
 -- Occupied --
-18.817 -18.789 -18.776 -18.775  -9.968  -9.960  -9.942  -9.922
 -9.883  -0.714  -0.703  -0.658  -0.613  -0.463  -0.395  -0.330
 -0.242  -0.186  -0.163  -0.144  -0.135  -0.107  -0.104  -0.102
 -0.082  -0.081  -0.069  -0.057  -0.004   0.037   0.052   0.065
  0.092   0.100   0.114

          Ground-State Mulliken Net Atomic Charges

     Atom                 Charge (a.u.)
  ----------------------------------------
      1 C                     0.309202
      2 O                    -0.616732
      3 O                    -0.587360
      4 C                     0.170546
      5 C                    -0.918525
      6 O                    -0.536889
      7 C                     0.459285
      8 O                    -0.549843
      9 C                    -0.856270
     10 H                     0.191445
     11 H                     0.196363
     12 H                     0.182684
     13 H                     0.190515
     14 H                     0.221381
     15 H                     0.144198
  ----------------------------------------
  Sum of atomic charges =    -2.000000

                    Cartesian Multipole Moments
 -----------------------------------------------------------------
    Charge (ESU x 10^10)
                -9.6064
    Dipole Moment (Debye)
         X      -7.3885      Y       5.9053      Z      -5.4689
       Tot      10.9257
    Quadrupole Moments (Debye-Ang)
        XX    -105.8270     XY      -5.8255     YY     -77.2498
        XZ      -6.3387     YZ       7.6282     ZZ     -83.2753

             Standard Nuclear Orientation (Angstroms)
    I     Atom           X                Y                Z
 ----------------------------------------------------------------
    1      C       1.8378247998    -0.0212228678     0.5840851603
    2      O       2.2787596130     0.5924450945    -0.4226875152
    3      O       2.3520605946    -0.0019525095     1.7450462854
    4      C       0.4559793407    -0.8501240450     0.5980771308
    5      C      -0.0728234201    -0.8084203438    -1.4008002263
    6      O       0.5045405509    -1.9964808889     1.1238983948
    7      C      -0.8860146874    -0.1800568139     0.5231490950
    8      O      -1.9450816907    -0.7876320659     0.8431970723
    9      C      -1.0271106669     1.3510639519     0.3658492059
   10      H      -0.7358633097     1.7475518530    -0.6137583627
   11      H      -0.4231624113     1.8680649183     1.1262452018
   12      H      -2.0880817742     1.5756415133     0.5417325101
   13      H      -0.5762370316    -1.7721381463    -1.5180513894
   14      H       0.9475744459    -0.8054979306    -1.7956107933
   15      H      -0.6435716025    -0.0194486350    -1.9182201933
 ----------------------------------------------------------------

 Total job time:  11872.75s(wall), 11894.46s(cpu)
        *  Thank you very much for using Q-Chem.  Have a nice day.  *
