 Q-Chem 4.3, Q-Chem, Inc., Pleasanton, CA (2015)
 Q-Chem 4.3.0 for Intel X86 Linux

User input:
--------------------------------------------------------------
$rem
JOBTYPE Opt
EXCHANGE HF
BASIS 6-31+G(d)
GUI=2
pdb_print 2
NBO TRUE
$end

$comment
product
$end

$molecule
-2 1
C        3.52200       -1.27800        2.47300
O        4.59900       -1.30300        1.83000
O        3.34100       -1.58600        3.73300
C        2.33500       -0.63100        1.79800
C        1.98400       -1.87300       -0.50400
O        1.34900       -0.20700        2.50100
C        2.12700       -0.48800        0.24600
O        1.05700        0.26200       -0.13700
C        3.36100        0.25500       -0.34100
H        3.14100        0.37800       -1.44100
H        4.31400       -0.45900       -0.37600
H        3.75000        1.22500       -0.00600
H        0.82900       -2.09700       -0.30800
H        2.53400       -2.74800       -0.01400
H        2.31800       -1.80800       -1.52600
$end

--------------------------------------------------------------

   18    -492.1247017174      3.96E-09 Convergence criterion met
 Total energy in the final basis set = -492.1247017174
   15    -492.1603022570      6.71E-09 Convergence criterion met
 Total energy in the final basis set = -492.1603022570
   15    -492.1751361284      3.22E-09 Convergence criterion met
 Total energy in the final basis set = -492.1751361284
   15    -492.1807848760      4.44E-09 Convergence criterion met
 Total energy in the final basis set = -492.1807848760
   14    -492.1833000030      7.58E-09 Convergence criterion met
 Total energy in the final basis set = -492.1833000030
   14    -492.1846105809      9.36E-09 Convergence criterion met
 Total energy in the final basis set = -492.1846105809
   14    -492.1859707715      6.20E-09 Convergence criterion met
 Total energy in the final basis set = -492.1859707715
   14    -492.1872913818      7.57E-09 Convergence criterion met
   13    -492.1927393412      8.31E-09 Convergence criterion met
 Total energy in the final basis set = -492.1927393412
   14    -492.1936312934      5.49E-09 Convergence criterion met
 Total energy in the final basis set = -492.1936312934
   13    -492.1941795293      7.56E-09 Convergence criterion met
 Total energy in the final basis set = -492.1941795293
   14    -492.1942838987      8.25E-09 Convergence criterion met
 Total energy in the final basis set = -492.1942838987
   12    -492.1943360329      7.76E-09 Convergence criterion met
 Total energy in the final basis set = -492.1943360329
   11    -492.1943376155      8.27E-09 Convergence criterion met
 Total energy in the final basis set = -492.1943376155

             Standard Nuclear Orientation (Angstroms)
    I     Atom           X                Y                Z
 ----------------------------------------------------------------
    1      C       1.4798149703     0.1672446143    -0.3844070324
    2      O       1.8250199489     1.2838410299     0.0343208231
    3      O       1.9649261002    -0.4894991224    -1.3145584711
    4      C       0.2979529259    -0.4886055206     0.3720700077
    5      C      -1.2460750580     0.4507158557    -1.4131732429
    6      O       0.5607242435    -1.2694578521     1.2512042569
    7      C      -1.1885286686    -0.0809149845     0.0479363600
    8      O      -2.0736060484    -1.0581644119     0.2394483652
    9      C      -1.4598655180     1.1306923109     0.9983874121
   10      H      -2.4664889682     1.4974150495     0.7919218635
   11      H      -0.7466556144     1.9461157498     0.8879000590
   12      H      -1.4359922966     0.7758578770     2.0257903942
   13      H      -1.0217069250    -0.3576144716    -2.1036039738
   14      H      -0.5668502463     1.2773044847    -1.6181753034
   15      H      -2.2682691807     0.7793045994    -1.6002029098
 ----------------------------------------------------------------

   10    -492.1943381040      7.52E-09 Convergence criterion met
 Total energy in the final basis set = -492.1943381040
 Final energy is   -492.194338103985
 **  OPTIMIZATION CONVERGED  **

                    Orbital Energies (a.u.)
 --------------------------------------------------------------

 Alpha MOs
 -- Occupied --
-20.246 -20.201 -20.200 -20.125 -11.026 -11.003 -10.965 -10.923
-10.919  -1.092  -1.062  -0.972  -0.932  -0.715  -0.642  -0.572
 -0.463  -0.370  -0.342  -0.333  -0.302  -0.289  -0.282  -0.264
 -0.245  -0.232  -0.211  -0.188  -0.176  -0.162  -0.104  -0.091
 -0.073  -0.021  -0.004

          Ground-State Mulliken Net Atomic Charges

     Atom                 Charge (a.u.)
  ----------------------------------------
      1 C                     0.517168
      2 O                    -0.751230
      3 O                    -0.749121
      4 C                     0.372077
      5 C                    -0.670992
      6 O                    -0.575373
      7 C                     0.369657
      8 O                    -0.843509
      9 C                    -0.702565
     10 H                     0.145908
     11 H                     0.187000
     12 H                     0.186469
     13 H                     0.195911
     14 H                     0.166557
     15 H                     0.152042
  ----------------------------------------
  Sum of atomic charges =    -2.000000

                    Cartesian Multipole Moments
 -----------------------------------------------------------------
    Charge (ESU x 10^10)
                -9.6064
    Dipole Moment (Debye)
         X      -1.1508      Y       3.5619      Z       0.0706
       Tot       3.7439
    Quadrupole Moments (Debye-Ang)
        XX    -101.8106     XY     -11.3146     YY     -77.1141
        XZ       8.3447     YZ       2.3812     ZZ     -71.7618

 Total job time:  2664.33s(wall), 2671.22s(cpu)
        *  Thank you very much for using Q-Chem.  Have a nice day.  *
