 Q-Chem 4.3, Q-Chem, Inc., Pleasanton, CA (2015)
 Q-Chem 4.3.0 for Intel X86 Linux

User input:
--------------------------------------------------------------
$comment
TS Frame 1050 converged, trying to find the RPATH now
$end

$molecule
-2 1
C
O  1 1.265295
C  1 1.502167 2 121.843495
O  3 1.253198 1 124.414563 2 1.738499 0
C  3 1.535547 1 118.191160 2 -172.686472 0
H  5 1.092649 3 113.497750 1 -15.358334 0
H  5 1.099335 3 108.074457 1 104.411701 0
H  5 1.100482 3 108.783858 1 -138.196818 0
C  1 1.580718 2 117.114856 3 -157.458254 0
O  9 1.262444 1 119.564767 2 -76.575691 0
O  9 1.270910 1 113.410451 2 99.857031 0
C  1 2.087053 2 107.693036 3 84.003550 0
H  12 1.092391 1 91.109593 2 79.981725 0
H  12 1.092532 1 98.395616 2 -34.452839 0
H  12 1.100488 1 126.595460 2 -161.216149 0
$end

$rem
jobtype freq
basis 6-31+G(d)
exchange b3lyp
$end

--------------------------------------------------------------

   17    -494.9863930712      4.39E-09 Convergence criterion met
 Total energy in the final basis set = -494.9863930712
 Frequency:      -268.19                  60.97                 130.99
 Force Cnst:      0.2304                 0.0205                 0.0373
 Red. Mass:       5.4376                 9.3508                 3.6865
 IR Intens:      123.411                  2.498                  0.116
 Frequency:       145.17                 172.05                 229.20
 Force Cnst:      0.0164                 0.0370                 0.0876
 Red. Mass:       1.3217                 2.1218                 2.8314
 IR Intens:        1.922                  5.929                 10.751
 Frequency:       236.64                 273.13                 320.39
 Force Cnst:      0.0612                 0.1182                 0.3366
 Red. Mass:       1.8554                 2.6896                 5.5661
 IR Intens:       12.106                 24.016                 14.722
 Frequency:       339.47                 390.37                 418.64
 Force Cnst:      0.8023                 0.6274                 0.4036
 Red. Mass:      11.8163                 6.9874                 3.9086
 IR Intens:        6.018                  5.627                 13.726
 Frequency:       481.07                 554.13                 641.53
 Force Cnst:      0.3365                 0.6167                 0.9274
 Red. Mass:       2.4677                 3.4085                 3.8246
 IR Intens:       56.516                 75.441                 15.369
 Frequency:       761.77                 768.06                 814.93
 Force Cnst:      0.9704                 0.6283                 2.8932
 Red. Mass:       2.8383                 1.8076                 7.3942
 IR Intens:       25.736                 40.516                 10.094
 Frequency:       839.86                 984.01                1027.93
 Force Cnst:      0.8571                 1.3561                 1.2597
 Red. Mass:       2.0623                 2.3771                 2.0235
 IR Intens:       22.420                 44.808                 34.025
 Frequency:      1036.21                1040.31                1221.20
 Force Cnst:      0.9846                 0.9943                 4.0311
 Red. Mass:       1.5563                 1.5594                 4.5878
 IR Intens:       43.397                 36.580                 89.828
 Frequency:      1362.72                1382.59                1438.19
 Force Cnst:     13.6803                 1.4237                 1.3327
 Red. Mass:      12.5036                 1.2641                 1.0936
 IR Intens:      153.490                 18.970                  3.326
 Frequency:      1467.29                1487.17                1491.14
 Force Cnst:      1.3680                 1.4225                 1.3906
 Red. Mass:       1.0785                 1.0916                 1.0615
 IR Intens:        8.791                 40.223                 10.050
 Frequency:      1516.55                1601.16                1610.76
 Force Cnst:     13.9698                12.5979                17.8034
 Red. Mass:      10.3092                 8.3402                11.6464
 IR Intens:      375.362                554.466                521.802
 Frequency:      2995.54                3004.68                3055.44
 Force Cnst:      5.4558                 5.5302                 6.0359
 Red. Mass:       1.0320                 1.0397                 1.0974
 IR Intens:       75.720                138.104                 58.895
 Frequency:      3123.93                3137.92                3181.79
 Force Cnst:      6.2944                 6.3542                 6.6280
 Red. Mass:       1.0947                 1.0953                 1.1112
 IR Intens:       51.990                 29.078                 16.495

 STANDARD THERMODYNAMIC QUANTITIES AT   298.15 K  AND     1.00 ATM

   This Molecule has  1 Imaginary Frequencies
   Zero point vibrational energy:       63.966 kcal/mol

   Atom    1 Element C  Has Mass   12.00000
   Atom    2 Element O  Has Mass   15.99491
   Atom    3 Element C  Has Mass   12.00000
   Atom    4 Element O  Has Mass   15.99491
   Atom    5 Element C  Has Mass   12.00000
   Atom    6 Element H  Has Mass    1.00783
   Atom    7 Element H  Has Mass    1.00783
   Atom    8 Element H  Has Mass    1.00783
   Atom    9 Element C  Has Mass   12.00000
   Atom   10 Element O  Has Mass   15.99491
   Atom   11 Element O  Has Mass   15.99491
   Atom   12 Element C  Has Mass   12.00000
   Atom   13 Element H  Has Mass    1.00783
   Atom   14 Element H  Has Mass    1.00783
   Atom   15 Element H  Has Mass    1.00783
   Molecular Mass:   130.026620 amu
   Principal axes and moments of inertia in amu*Bohr^2:
                             1           2           3
    Eigenvalues --      803.33222  1321.21842  1462.97319
          X               0.99910    -0.02625    -0.03339
          Y               0.02489     0.99888    -0.04036
          Z               0.03442     0.03949     0.99863
   Rotational Symmetry Number is   1
   The Molecule is an Asymmetric Top
   Translational Enthalpy:        0.889 kcal/mol
   Rotational Enthalpy:           0.889 kcal/mol
   Vibrational Enthalpy:         68.162 kcal/mol
   gas constant (RT):             0.592 kcal/mol
   Translational Entropy:        40.501  cal/mol.K
   Rotational Entropy:           28.831  cal/mol.K
   Vibrational Entropy:          25.188  cal/mol.K

   Total Enthalpy:               70.532 kcal/mol
   Total Entropy:                94.519  cal/mol.K

 Total job time:  3000.65s(wall), 3000.67s(cpu)
        *  Thank you very much for using Q-Chem.  Have a nice day.  *
 Q-Chem 4.3, Q-Chem, Inc., Pleasanton, CA (2015)
 Q-Chem 4.3.0 for Intel X86 Linux

User input:
--------------------------------------------------------------
$molecule
READ
$end

$rem
RPATH_MAX_CYCLES 120
jobtype rpath
basis 6-31+G(d)
exchange b3lyp
pdb_print 2
scf_guess read
$end
--------------------------------------------------------------

    2    -494.9863930717      2.89E-09 Convergence criterion met
 Total energy in the final basis set = -494.9863930717
   13    -494.9866496010      4.57E-09 Convergence criterion met
 Total energy in the final basis set = -494.9866496010
   13    -494.9864060547      2.10E-09 Convergence criterion met
 Total energy in the final basis set = -494.9864060547
   13    -494.9866508282      2.02E-09 Convergence criterion met
 Total energy in the final basis set = -494.9866508282
   13    -494.9870015100      6.37E-09 Convergence criterion met
 Total energy in the final basis set = -494.9870015100
   14    -494.9848229439      6.12E-09 Convergence criterion met
 Total energy in the final basis set = -494.9848229439
   13    -494.9872547136      8.55E-09 Convergence criterion met
 Total energy in the final basis set = -494.9863930704
   13    -494.9865874133      3.65E-09 Convergence criterion met
 Total energy in the final basis set = -494.9865874133
   13    -494.9862427701      2.50E-09 Convergence criterion met
 Total energy in the final basis set = -494.9862427701
   13    -494.9865886915      2.41E-09 Convergence criterion met
 Total energy in the final basis set = -494.9865886915
   13    -494.9865592328      7.11E-09 Convergence criterion met
 Total energy in the final basis set = -494.9865592328
   13    -494.9866941852      3.87E-09 Convergence criterion met
 Total energy in the final basis set = -494.9866941852
   13    -494.9862510675      4.48E-09 Convergence criterion met
 Total energy in the final basis set = -494.9862510675
   13    -494.9867796470      3.41E-09 Convergence criterion met
 Total energy in the final basis set = -494.9867796470

                    Orbital Energies (a.u.)
 --------------------------------------------------------------

 Alpha MOs
 -- Occupied --
-18.812 -18.797 -18.792 -18.791  -9.965  -9.963  -9.947  -9.909
 -9.881  -0.718  -0.702  -0.673  -0.626  -0.458  -0.386  -0.338
 -0.245  -0.178  -0.153  -0.144  -0.137  -0.115  -0.103  -0.098
 -0.096  -0.088  -0.069  -0.057  -0.009   0.026   0.050   0.055
  0.072   0.099   0.110

          Ground-State Mulliken Net Atomic Charges

     Atom                 Charge (a.u.)
  ----------------------------------------
      1 C                     0.287445
      2 O                    -0.565545
      3 C                     0.306352
      4 O                    -0.573743
      5 C                    -0.769902
      6 H                     0.220809
      7 H                     0.186804
      8 H                     0.169730
      9 C                     0.319584
     10 O                    -0.606482
     11 O                    -0.601815
     12 C                    -0.954794
     13 H                     0.233140
     14 H                     0.200104
     15 H                     0.148313
  ----------------------------------------
  Sum of atomic charges =    -2.000000

                    Cartesian Multipole Moments
 -----------------------------------------------------------------
    Charge (ESU x 10^10)
                -9.6064
    Dipole Moment (Debye)
         X      -2.6705      Y       2.3711      Z       2.1201
       Tot       4.1531
    Quadrupole Moments (Debye-Ang)
        XX    -100.9123     XY      -5.3014     YY     -78.6867
        XZ      -3.1839     YZ       2.5023     ZZ     -76.9576

             Standard Nuclear Orientation (Angstroms)
    I     Atom           X                Y                Z
 ----------------------------------------------------------------
    1      C       0.0819789904    -0.4882173594    -0.4250650683
    2      O       0.1322467979    -1.4543016630    -1.2406174597
    3      C      -1.1856899729     0.2811002458    -0.1849161196
    4      O      -2.2843707787     0.0238832322    -0.7301180291
    5      C      -1.1148750040     1.5411948631     0.6897560388
    6      H      -0.1940733509     1.6152802869     1.2732948146
    7      H      -1.1702630104     2.4183290531     0.0293734045
    8      H      -1.9878441626     1.5570868074     1.3596313456
    9      C       1.4443152234     0.2359983700    -0.0812323166
   10      O       2.2601063307    -0.3144400599     0.7095061088
   11      O       1.6156565418     1.3200649701    -0.7220552150
   12      C      -0.6287127877    -1.2285860107     1.3922300870
   13      H       0.3600565545    -1.6185957215     1.6443128319
   14      H      -1.3161326702    -1.9816340997     0.9998034671
   15      H      -1.0629531887    -0.6410588134     2.2152251688
 ----------------------------------------------------------------

 Total job time:  17782.81s(wall), 17801.49s(cpu)
        *  Thank you very much for using Q-Chem.  Have a nice day.  *
