 Q-Chem 4.3, Q-Chem, Inc., Pleasanton, CA (2015)
 Q-Chem 4.3.0 for Intel X86 Linux

User input:
--------------------------------------------------------------
$comment
Title
$end

$molecule
-2 1
C         3.436        -1.226          2.568
O         4.568        -1.496          2.090
O         3.258        -1.538          3.789
C         2.344        -0.585          1.829
C         2.003        -2.111          0.368
O         1.217        -0.392          2.430
C         2.537        -0.141          0.440
O         1.530         0.558         -0.013
C         3.796         0.150         -0.262
H         3.608         0.157         -1.413
H         4.569        -0.602          0.069
H         4.183         1.218         -0.169
H         1.093        -1.764         -0.267
H         1.673        -2.752          1.237
H         2.923        -2.501         -0.142
$end

$solvent
CavityRadius    30
Dielectric     78.39
$end

$molecule
READ
$end

$rem
jobtype          FREQ
exchange         b3lyp
basis            6-31+G(d)
pdb_print 2
SOLVENT_METHOD ONSAGER
NBO TRUE
$end

--------------------------------------------------------------

   17    -494.9703975560      9.26E-09 Convergence criterion met
 Total energy in the final basis set = -494.9703975560
 Frequency:      -343.69                -163.34                 103.97
 Force Cnst:      0.4279                 0.1795                 0.0352
 Red. Mass:       6.1481                11.4194                 5.5307
 IR Intens:      157.399                  0.253                  4.783
 Frequency:       209.55                 242.30                 319.13
 Force Cnst:      0.1237                 0.1703                 0.3246
 Red. Mass:       4.7817                 4.9239                 5.4102
 IR Intens:       14.312                  9.237                 29.100
 Frequency:       351.08                 445.35                 462.29
 Force Cnst:      0.3375                 1.1376                 1.1338
 Red. Mass:       4.6467                 9.7353                 9.0041
 IR Intens:        2.854                 20.273                  4.344
 Frequency:       495.11                 539.29                 547.42
 Force Cnst:      0.4778                 0.3270                 0.2743
 Red. Mass:       3.3085                 1.9086                 1.5535
 IR Intens:       50.636                 46.716                 26.125
 Frequency:       570.88                 583.03                 706.48
 Force Cnst:      0.2705                 0.7400                 1.4168
 Red. Mass:       1.4088                 3.6950                 4.8180
 IR Intens:        6.888                 19.154                 14.566
 Frequency:       778.00                 856.93                 936.32
 Force Cnst:      2.5368                 4.1124                 0.6531
 Red. Mass:       7.1133                 9.5050                 1.2644
 IR Intens:       23.200                 48.676                 20.276
 Frequency:      1002.40                1073.09                1127.25
 Force Cnst:      0.6894                 1.4304                 1.4537
 Red. Mass:       1.1646                 2.1083                 1.9417
 IR Intens:        9.201                 76.768                 26.551
 Frequency:      1147.87                1180.63                1329.12
 Force Cnst:      1.3824                 0.9846                 5.0799
 Red. Mass:       1.7808                 1.1989                 4.8806
 IR Intens:       71.495                 20.159                130.880
 Frequency:      1367.77                1429.02                1457.21
 Force Cnst:      4.9295                 3.8527                 1.4431
 Red. Mass:       4.4722                 3.2022                 1.1534
 IR Intens:      145.962                368.846                  4.092
 Frequency:      1468.47                1510.90                1519.34
 Force Cnst:      2.0615                 1.6343                 1.4864
 Red. Mass:       1.6226                 1.2151                 1.0929
 IR Intens:       25.395                 32.680                  5.041
 Frequency:      1530.12                1548.03                1617.69
 Force Cnst:     12.4572                 1.5654                15.2639
 Red. Mass:       9.0307                 1.1087                 9.8998
 IR Intens:      283.057                 34.218                322.091
 Frequency:      2442.93                2513.01                2681.73
 Force Cnst:      3.7689                 3.9335                 4.5096
 Red. Mass:       1.0719                 1.0572                 1.0643
 IR Intens:      179.806                 40.602                130.532
 Frequency:      2796.12                2807.99                2890.70
 Force Cnst:      4.9330                 5.0624                 5.4410
 Red. Mass:       1.0709                 1.0897                 1.1051
 IR Intens:       40.775                 26.442                 59.524
 Total job time:  2998.22s(wall), 2998.13s(cpu)
        *  Thank you very much for using Q-Chem.  Have a nice day.  *
 Q-Chem 4.3, Q-Chem, Inc., Pleasanton, CA (2015)
 Q-Chem 4.3.0 for Intel X86 Linux

User input:
--------------------------------------------------------------

$molecule
READ
$end

$solvent
CavityRadius    30
Dielectric     78.39
$end

$rem
SOLVENT_METHOD ONSAGER
jobtype          TS
exchange         b3lyp
basis            6-31+G(d)
geom_opt_maxcyc  100
$end

--------------------------------------------------------------

   17    -494.9703975559      9.26E-09 Convergence criterion met
 Total energy in the final basis set = -494.9703975559
   12    -494.9758334464      8.83E-09 Convergence criterion met
 Total energy in the final basis set = -494.9758334464
   13    -494.9930014632      9.93E-09 Convergence criterion met
 Total energy in the final basis set = -494.9930014632
   13    -495.0020393786      7.12E-09 Convergence criterion met
 Total energy in the final basis set = -495.0020393786
   13    -495.0089505345      8.08E-09 Convergence criterion met
 Total energy in the final basis set = -495.0089505345
   14    -495.0140455645      5.41E-09 Convergence criterion met
 Total energy in the final basis set = -495.0140455645
   13    -495.0148762110      8.44E-09 Convergence criterion met
   13    -495.0211410993      1.75E-09 Convergence criterion met
 Total energy in the final basis set = -495.0211410993
   12    -495.0211540685      3.37E-09 Convergence criterion met
 Total energy in the final basis set = -495.0211540685
   12    -495.0211638773      3.82E-09 Convergence criterion met
 Total energy in the final basis set = -495.0211638773
   12    -495.0211658124      2.49E-09 Convergence criterion met
 Total energy in the final basis set = -495.0211658124
   11    -495.0211681190      6.75E-09 Convergence criterion met
 Total energy in the final basis set = -495.0211681190
   11    -495.0211688929      9.20E-09 Convergence criterion met
 Total energy in the final basis set = -495.0211688929
 Final energy is   -495.021168892890
 **  OPTIMIZATION CONVERGED  **
        *  Thank you very much for using Q-Chem.  Have a nice day.  *
 Q-Chem 4.3, Q-Chem, Inc., Pleasanton, CA (2015)
 Q-Chem 4.3.0 for Intel X86 Linux

User input:
--------------------------------------------------------------

$solvent
CavityRadius    30
Dielectric     78.39
$end

$molecule
READ
$end

$rem
jobtype          FREQ
exchange         b3lyp
basis            6-31+G(d)
pdb_print 2
NBO TRUE
SOLVENT_METHOD ONSAGER
$end
--------------------------------------------------------------

             Standard Nuclear Orientation (Angstroms)
    I     Atom           X                Y                Z
 ----------------------------------------------------------------
    1      C      -1.4443150786    -0.2359983635     0.0812325301
    2      O      -2.2601063705     0.3144397030    -0.7095062207
    3      O      -1.6156563258    -1.3200645752     0.7220559957
    4      C      -0.0819788891     0.4882175215     0.4250647549
    5      C       0.6287125989     1.2285850883    -1.3922305982
    6      O      -0.1322466407     1.4543025336     1.2406168661
    7      C       1.1856898298    -0.2811000537     0.1849161430
    8      O       2.2843708544    -0.0238826942     0.7301179050
    9      C       1.1148747849    -1.5411953633    -0.6897554914
   10      H       1.9878437361    -1.5570876573    -1.3596307529
   11      H       0.1940734087    -1.6152810776    -1.2732939294
   12      H       1.1702628853    -2.4183294631    -0.0293721878
   13      H       1.3161324553     1.9816333306    -0.9998044940
   14      H      -0.3600570786     1.6185947810    -1.6443135327
   15      H       1.0629529791     0.6410573729    -2.2152255018
 ----------------------------------------------------------------

   17    -495.0212285248      4.39E-09 Convergence criterion met
 Total energy in the final basis set = -495.0212285248

                    Orbital Energies (a.u.)
 --------------------------------------------------------------

 Alpha MOs
 -- Occupied --
-18.822 -18.789 -18.789 -18.787  -9.967  -9.963  -9.944  -9.911
 -9.881  -0.717  -0.707  -0.665  -0.623  -0.461  -0.387  -0.336
 -0.243  -0.180  -0.157  -0.144  -0.136  -0.114  -0.108  -0.098
 -0.094  -0.084  -0.067  -0.057  -0.009   0.031   0.044   0.058
  0.075   0.103   0.110

          Ground-State Mulliken Net Atomic Charges

     Atom                 Charge (a.u.)
  ----------------------------------------
      1 C                     0.319797
      2 O                    -0.612432
      3 O                    -0.604935
      4 C                     0.260849
      5 C                    -0.933771
      6 O                    -0.583427
      7 C                     0.313269
      8 O                    -0.558787
      9 C                    -0.767528
     10 H                     0.170356
     11 H                     0.226252
     12 H                     0.188374
     13 H                     0.199977
     14 H                     0.232758
     15 H                     0.149248
  ----------------------------------------
  Sum of atomic charges =    -2.000000

                    Cartesian Multipole Moments
 -----------------------------------------------------------------
    Charge (ESU x 10^10)
                -9.6064
    Dipole Moment (Debye)
         X       2.6508      Y      -2.4704      Z      -1.6968
       Tot       4.0011
    Quadrupole Moments (Debye-Ang)
        XX     -99.9992     XY      -5.2040     YY     -78.8610
        XZ      -3.5375     YZ       2.3301     ZZ     -76.7776

 Frequency:      -268.19                  61.01                 130.98
 Force Cnst:      0.2305                 0.0205                 0.0373
 Red. Mass:       5.4379                 9.3506                 3.6895
 IR Intens:      121.506                  2.503                  0.098
 Frequency:       145.17                 172.06                 229.20
 Force Cnst:      0.0164                 0.0370                 0.0876
 Red. Mass:       1.3212                 2.1219                 2.8311
 IR Intens:        1.827                  5.794                 10.130
 Frequency:       236.65                 273.14                 320.41
 Force Cnst:      0.0612                 0.1183                 0.3367
 Red. Mass:       1.8553                 2.6904                 5.5658
 IR Intens:       11.976                 23.705                 14.220
 Frequency:       339.48                 390.36                 418.64
 Force Cnst:      0.8024                 0.6273                 0.4036
 Red. Mass:      11.8169                 6.9865                 3.9086
 IR Intens:        6.288                  5.783                 13.849
 Frequency:       481.09                 554.13                 641.55
 Force Cnst:      0.3365                 0.6167                 0.9275
 Red. Mass:       2.4677                 3.4086                 3.8248
 IR Intens:       56.612                 74.702                 16.146
 Frequency:       761.77                 768.07                 814.94
 Force Cnst:      0.9705                 0.6283                 2.8928
 Red. Mass:       2.8386                 1.8077                 7.3928
 IR Intens:       25.650                 40.832                 10.363
 Frequency:       839.90                 984.06                1027.95
 Force Cnst:      0.8571                 1.3569                 1.2582
 Red. Mass:       2.0622                 2.3782                 2.0209
 IR Intens:       21.848                 44.048                 32.505
 Frequency:      1036.26                1040.38                1221.24
 Force Cnst:      0.9860                 0.9939                 4.0303
 Red. Mass:       1.5585                 1.5585                 4.5865
 IR Intens:       44.050                 36.248                 89.482
 Frequency:      1362.72                1382.72                1438.22
 Force Cnst:     13.6880                 1.4239                 1.3328
 Red. Mass:      12.5106                 1.2640                 1.0936
 IR Intens:      151.337                 18.765                  3.332
 Frequency:      1467.32                1487.32                1491.30
 Force Cnst:      1.3680                 1.4229                 1.3909
 Red. Mass:       1.0785                 1.0917                 1.0615
 IR Intens:        8.689                 40.236                  9.612
 Frequency:      1516.56                1601.18                1610.77
 Force Cnst:     13.9611                12.5910                17.8003
 Red. Mass:      10.3027                 8.3354                11.6443
 IR Intens:      361.617                540.598                521.871
 Frequency:      2995.54                3004.68                3055.45
 Force Cnst:      5.4558                 5.5302                 6.0360
 Red. Mass:       1.0319                 1.0397                 1.0974
 IR Intens:       84.963                172.065                 55.677
 Frequency:      3123.92                3137.93                3181.79
 Force Cnst:      6.2943                 6.3542                 6.6280
 Red. Mass:       1.0947                 1.0953                 1.1112
 IR Intens:       46.193                 29.477                 16.458

 STANDARD THERMODYNAMIC QUANTITIES AT   298.15 K  AND     1.00 ATM

   This Molecule has  1 Imaginary Frequencies
   Zero point vibrational energy:       63.967 kcal/mol

   Atom    1 Element C  Has Mass   12.00000
   Atom    2 Element O  Has Mass   15.99491
   Atom    3 Element O  Has Mass   15.99491
   Atom    4 Element C  Has Mass   12.00000
   Atom    5 Element C  Has Mass   12.00000
   Atom    6 Element O  Has Mass   15.99491
   Atom    7 Element C  Has Mass   12.00000
   Atom    8 Element O  Has Mass   15.99491
   Atom    9 Element C  Has Mass   12.00000
   Atom   10 Element H  Has Mass    1.00783
   Atom   11 Element H  Has Mass    1.00783
   Atom   12 Element H  Has Mass    1.00783
   Atom   13 Element H  Has Mass    1.00783
   Atom   14 Element H  Has Mass    1.00783
   Atom   15 Element H  Has Mass    1.00783
   Molecular Mass:   130.026620 amu
   Principal axes and moments of inertia in amu*Bohr^2:
                             1           2           3
    Eigenvalues --      803.33227  1321.21834  1462.97314
          X               0.99910    -0.02625    -0.03339
          Y               0.02489     0.99888    -0.04036
          Z               0.03442     0.03949     0.99863
   Rotational Symmetry Number is   1
   The Molecule is an Asymmetric Top
   Translational Enthalpy:        0.889 kcal/mol
   Rotational Enthalpy:           0.889 kcal/mol
   Vibrational Enthalpy:         68.164 kcal/mol
   gas constant (RT):             0.592 kcal/mol
   Translational Entropy:        40.501  cal/mol.K
   Rotational Entropy:           28.831  cal/mol.K
   Vibrational Entropy:          25.186  cal/mol.K

   Total Enthalpy:               70.534 kcal/mol
   Total Entropy:                94.517  cal/mol.K

 Total job time:  2999.69s(wall), 3000.18s(cpu)
        *  Thank you very much for using Q-Chem.  Have a nice day.  *
