 Q-Chem 4.3, Q-Chem, Inc., Pleasanton, CA (2015)
 Q-Chem 4.3.0 for Intel X86 Linux

User input:
--------------------------------------------------------------
$rem
JOBTYPE Opt
EXCHANGE HF
BASIS 6-31+G(d)
GUI=2
pdb_print 2
NBO TRUE
$end

$comment
reactantstate
$end

$molecule
-2 1
C        3.29600       -0.86600        2.39400
O        4.50600       -1.03900        2.12000
O        2.92600       -0.95400        3.64500
C        2.15900       -0.62100        1.29800
C        1.96600       -1.76700        0.31200
O        0.94700       -0.47600        2.01100
C        2.44300        0.67600        0.56700
O        1.59900        1.61900        0.54700
C        3.71800        0.81000       -0.11300
H        4.08300       -0.17800       -0.30800
H        4.36500        1.05500        0.71800
H        3.63500        1.42000       -1.07500
H        1.31600       -1.57200       -0.59100
H        1.23900       -2.36100        0.98400
H        2.92900       -2.26400        0.05400
$end

--------------------------------------------------------------

   17    -492.0993345473      6.01E-09 Convergence criterion met
 Total energy in the final basis set = -492.0993345473
   15    -492.1374797164      4.76E-09 Convergence criterion met
 Total energy in the final basis set = -492.1374797164
   15    -492.1576510258      4.78E-09 Convergence criterion met
 Total energy in the final basis set = -492.1576510258
   14    -492.1628124197      8.33E-09 Convergence criterion met
 Total energy in the final basis set = -492.1628124197
   14    -492.1651251406      3.99E-09 Convergence criterion met
 Total energy in the final basis set = -492.1651251406
   14    -492.1658158083      6.86E-09 Convergence criterion met
 Total energy in the final basis set = -492.1658158083
   14    -492.1669375925      5.78E-09 Convergence criterion met
 Total energy in the final basis set = -492.1669375925
   14    -492.1672597372      5.03E-09 Convergence criterion met
   13    -492.1761968436      5.27E-09 Convergence criterion met
 Total energy in the final basis set = -492.1761968436
   13    -492.1767485128      5.45E-09 Convergence criterion met
 Total energy in the final basis set = -492.1767485128
   13    -492.1769974051      5.81E-09 Convergence criterion met
 Total energy in the final basis set = -492.1769974051
   13    -492.1770386765      6.18E-09 Convergence criterion met
 Total energy in the final basis set = -492.1770386765
   11    -492.1770527947      8.50E-09 Convergence criterion met
 Total energy in the final basis set = -492.1770527947
   10    -492.1770539513      6.22E-09 Convergence criterion met
 Total energy in the final basis set = -492.1770539513

             Standard Nuclear Orientation (Angstroms)
    I     Atom           X                Y                Z
 ----------------------------------------------------------------
    1      C       1.1889572111     0.2766572918     0.3878861082
    2      O       0.9504054580     0.9721938282     1.3969532827
    3      O       2.2515112621     0.2679334532    -0.2596808021
    4      C       0.0181610408    -0.6700901656    -0.0901191556
    5      C       0.0565133420    -0.7984438794    -1.6542275966
    6      O       0.0593764993    -1.8737044143     0.4717570779
    7      C      -1.3037818265     0.1128535085     0.1819879584
    8      O      -2.3044531496    -0.3539263990     0.6623877142
    9      C      -1.3957095224     1.5732197638    -0.2886745226
   10      H      -2.2183269428     1.6547451171    -1.0003045197
   11      H      -0.4863334078     1.9447769086    -0.7392453467
   12      H      -1.6247339112     2.1881985605     0.5749485760
   13      H      -0.7784372800    -1.4265010474    -1.9688570352
   14      H       0.9859107504    -1.2956720884    -1.9009231911
   15      H       0.0217999110     0.1453016945    -2.2051620808
 ----------------------------------------------------------------

    9    -492.1770542849      6.82E-09 Convergence criterion met
 Total energy in the final basis set = -492.1770542849
 Final energy is   -492.177054284929
 **  OPTIMIZATION CONVERGED  **

                    Orbital Energies (a.u.)
 --------------------------------------------------------------

 Alpha MOs
 -- Occupied --
-20.256 -20.168 -20.167 -20.109 -11.021 -10.989 -10.954 -10.944
-10.912  -1.092  -1.042  -0.934  -0.912  -0.729  -0.667  -0.549
 -0.440  -0.374  -0.331  -0.323  -0.319  -0.298  -0.276  -0.256
 -0.236  -0.229  -0.214  -0.201  -0.168  -0.110  -0.094  -0.070
 -0.059  -0.001   0.015

          Ground-State Mulliken Net Atomic Charges

     Atom                 Charge (a.u.)
  ----------------------------------------
      1 C                     0.592300
      2 O                    -0.758200
      3 O                    -0.794650
      4 C                     0.357583
      5 C                    -0.697636
      6 O                    -0.851802
      7 C                     0.328711
      8 O                    -0.577866
      9 C                    -0.665554
     10 H                     0.152890
     11 H                     0.205318
     12 H                     0.205806
     13 H                     0.159049
     14 H                     0.219417
     15 H                     0.124634
  ----------------------------------------
  Sum of atomic charges =    -2.000000

                    Cartesian Multipole Moments
 -----------------------------------------------------------------
    Charge (ESU x 10^10)
                -9.6064
    Dipole Moment (Debye)
         X      -4.1168      Y       4.6299      Z      -5.1454
       Tot       8.0535
    Quadrupole Moments (Debye-Ang)
        XX     -91.6800     XY      -6.8658     YY     -80.2550
        XZ       1.7634     YZ      -0.3252     ZZ     -71.5046

 Total job time:  5507.89s(wall), 5516.98s(cpu)
        *  Thank you very much for using Q-Chem.  Have a nice day.  *
