 Q-Chem 4.3, Q-Chem, Inc., Pleasanton, CA (2015)
 Q-Chem 4.3.0 for Intel X86 Linux

User input:
--------------------------------------------------------------
$comment
Title
$end

$molecule
-2 1
C         1.886        -0.049          0.569
O         2.443         0.525         -0.394
O         2.387        -0.140          1.732
C         0.467        -0.818          0.586
O        -0.071        -0.784         -1.399
C         0.488        -1.930          1.184
O        -0.879        -0.160          0.518
C        -1.916        -0.793          0.880
H        -1.080         1.361          0.349
H        -0.817         1.766         -0.634
H        -0.496         1.911          1.102
C        -2.151         1.531          0.536
H        -0.569        -1.746         -1.515
H         0.941        -0.773         -1.812
H        -0.655        -0.006         -1.924
$end

$molecule
READ
$end

$solvent
CavityRadius    30
Dielectric     78.39
$end

$rem
jobtype          TS
exchange         b3lyp
basis            6-31+G(d)
geom_opt_maxcyc  100
SOLVENT_METHOD ONSAGER
$end

--------------------------------------------------------------

   27    -494.1802990800      8.18E-09 Convergence criterion met
 Total energy in the final basis set = -494.1802990800
   20    -494.2010974146      7.48E-09 Convergence criterion met
 Total energy in the final basis set = -494.2010974146
   20    -494.2217796217      7.05E-09 Convergence criterion met
 Total energy in the final basis set = -494.2217796217
   19    -494.2418578663      7.65E-09 Convergence criterion met
 Total energy in the final basis set = -494.2418578663
   19    -494.2816730512      4.49E-09 Convergence criterion met
 Total energy in the final basis set = -494.2816730512
   17    -494.2938919472      8.89E-09 Convergence criterion met
 Total energy in the final basis set = -494.2938919472
   17    -494.3031194307      7.69E-09 Convergence criterion met
 Total energy in the final basis set = -494.3031194307
   17    -494.3147774929      3.45E-09 Convergence criterion met
 Total energy in the final basis set = -494.8818130598
   13    -494.8820421218      5.00E-09 Convergence criterion met
 Total energy in the final basis set = -494.8820421218
   13    -494.8822864968      2.89E-09 Convergence criterion met
 Total energy in the final basis set = -494.8822864968
   13    -494.8825343170      9.89E-09 Convergence criterion met
 Total energy in the final basis set = -494.8825343170
   15    -494.8827957679      2.33E-09 Convergence criterion met
 Total energy in the final basis set = -494.8827957679
   15    -494.8830087157      2.97E-09 Convergence criterion met
 Total energy in the final basis set = -494.8830087157
   15    -494.8832402743      3.32E-09 Convergence criterion met
 Total energy in the final basis set = -494.8832402743
 Q-Chem 4.3, Q-Chem, Inc., Pleasanton, CA (2015)
 Q-Chem 4.3.0 for Intel X86 Linux

User input:
--------------------------------------------------------------

$molecule
READ
$end

$solvent
CavityRadius    30
Dielectric     78.39
$end

$rem
jobtype          FREQ
exchange         b3lyp
basis            6-31+G(d)
pdb_print 2
SOLVENT_METHOD ONSAGER
NBO TRUE
$end
--------------------------------------------------------------

             Standard Nuclear Orientation (Angstroms)
    I     Atom           X                Y                Z
 ----------------------------------------------------------------
    1      C       2.4021689238     0.0975029318     0.3588457308
    2      O       1.7849109196     1.2373589065     0.4750362669
    3      O       3.3859483020    -0.2741471695     1.0301634813
    4      C       1.7854015528    -0.7269680034    -0.6999811150
    5      O      -0.3232053557     1.1659091301    -0.8994610947
    6      C       0.9956442968    -0.9344082268    -1.6418765686
    7      O      -2.3703135968    -2.0031189186     0.8412041982
    8      C      -2.8953654014    -2.3975306714    -0.0936725044
    9      H      -3.4092173002     1.2308823078     0.5314655562
   10      H      -3.3002485244     2.6235046059    -0.6165211612
   11      H      -3.6146180338     2.9364879695     1.1485705527
   12      C      -3.7793028207     2.2448336112     0.3015026099
   13      H       0.0300741222     0.1067560547    -1.3862362326
   14      H       0.5602569920     1.2913448666    -0.2540697581
   15      H      -1.1362487178     1.1024307583    -0.3476606876
 ----------------------------------------------------------------

   19    -494.8835298287      9.94E-09 Convergence criterion met
 Total energy in the final basis set = -494.8835298287

                    Orbital Energies (a.u.)
 --------------------------------------------------------------

 Alpha MOs
 -- Occupied --
-19.071 -18.949 -18.881 -18.869 -10.119 -10.060  -9.924  -9.907
 -9.864  -0.967  -0.804  -0.787  -0.711  -0.490  -0.381  -0.353
 -0.350  -0.314  -0.278  -0.276  -0.272  -0.200  -0.189  -0.178
 -0.170  -0.146  -0.089  -0.086  -0.058  -0.029  -0.028  -0.020
 -0.011   0.011   0.117

          Ground-State Mulliken Net Atomic Charges

     Atom                 Charge (a.u.)
  ----------------------------------------
      1 C                     0.281731
      2 O                    -0.666287
      3 O                    -0.614357
      4 C                     0.575518
      5 O                    -0.922464
      6 C                    -1.108871
      7 O                    -0.128562
      8 C                     0.080163
      9 H                     0.105234
     10 H                     0.120572
     11 H                     0.111321
     12 C                    -1.267205
     13 H                     0.362397
     14 H                     0.576248
     15 H                     0.494563
  ----------------------------------------
  Sum of atomic charges =    -2.000000

                    Cartesian Multipole Moments
 -----------------------------------------------------------------
    Charge (ESU x 10^10)
                -9.6064
    Dipole Moment (Debye)
         X       6.8074      Y      -7.7189      Z       0.7960
       Tot      10.3226
    Quadrupole Moments (Debye-Ang)
        XX    -182.4585     XY      39.7981     YY     -97.5395
        XZ      -4.1550     YZ      -8.9127     ZZ     -79.3008

 Frequency:     -1315.53                 -65.81                 -18.23
 Force Cnst:      1.1046                 0.0096                 0.0014
 Red. Mass:       1.0834                 3.7521                 7.3039
 IR Intens:     1083.492                 87.466                 23.452
 Frequency:        15.07                  24.37                  55.48
 Force Cnst:      0.0011                 0.0033                 0.0079
 Red. Mass:       8.1964                 9.4134                 4.3665
 IR Intens:        8.262                 10.114                 38.664
 Frequency:        71.47                  93.85                 126.25
 Force Cnst:      0.0134                 0.0082                 0.0729
 Red. Mass:       4.4683                 1.5784                 7.7659
 IR Intens:       16.508                 12.145                  6.053
 Frequency:       136.82                 139.71                 198.26
 Force Cnst:      0.0951                 0.0471                 0.0252
 Red. Mass:       8.6218                 4.0933                 1.0874
 IR Intens:        3.696                  2.404                 45.742
 Frequency:       236.00                 249.23                 260.42
 Force Cnst:      0.0520                 0.1363                 0.1802
 Red. Mass:       1.5844                 3.7246                 4.5093
 IR Intens:       59.914                 50.239                 30.686
 Frequency:       394.50                 461.65                 557.59
 Force Cnst:      0.4294                 0.8501                 1.9669
 Red. Mass:       4.6829                 6.7701                10.7377
 IR Intens:      350.956                 21.763                 17.747
 Frequency:       599.90                 656.94                 721.03
 Force Cnst:      0.2347                 2.7544                 0.3474
 Red. Mass:       1.1068                10.8322                 1.1340
 IR Intens:      194.531                 70.601                204.381
 Frequency:       755.76                 781.66                 892.04
 Force Cnst:      0.3980                 2.6875                 6.3914
 Red. Mass:       1.1828                 7.4654                13.6326
 IR Intens:      213.168                 25.021                 47.750
 Frequency:      1090.28                1270.80                1324.66
 Force Cnst:      0.7585                 5.6025                 1.1451
 Red. Mass:       1.0830                 5.8882                 1.1076
 IR Intens:      111.344                855.146                434.095
 Frequency:      1450.15                1460.67                1555.93
 Force Cnst:      1.3428                 1.3621                 1.7087
 Red. Mass:       1.0837                 1.0836                 1.1980
 IR Intens:        1.471                  3.875                649.109
 Frequency:      1572.28                1686.21                1894.88
 Force Cnst:      2.3884                 3.4242                 2.3489
 Red. Mass:       1.6398                 2.0440                 1.1103
 IR Intens:     1956.398                 93.789                874.020
 Frequency:      2031.41                2107.61                2933.89
 Force Cnst:     28.8523                34.1388                 5.1809
 Red. Mass:      11.8668                13.0442                 1.0216
 IR Intens:       33.096               1125.889                193.784
 Frequency:      3027.54                3043.13                3531.23
 Force Cnst:      5.9577                 6.0178                 7.8328
 Red. Mass:       1.1032                 1.1029                 1.0661
 IR Intens:       76.693                 99.005                740.661

 STANDARD THERMODYNAMIC QUANTITIES AT   298.15 K  AND     1.00 ATM

   This Molecule has  3 Imaginary Frequencies
   Zero point vibrational energy:       53.478 kcal/mol

   Atom    1 Element C  Has Mass   12.00000
   Atom    2 Element O  Has Mass   15.99491
   Atom    3 Element O  Has Mass   15.99491
   Atom    4 Element C  Has Mass   12.00000
   Atom    5 Element O  Has Mass   15.99491
   Atom    6 Element C  Has Mass   12.00000
   Atom    7 Element O  Has Mass   15.99491
   Atom    8 Element C  Has Mass   12.00000
   Atom    9 Element H  Has Mass    1.00783
   Atom   10 Element H  Has Mass    1.00783
   Atom   11 Element H  Has Mass    1.00783
   Atom   12 Element C  Has Mass   12.00000
   Atom   13 Element H  Has Mass    1.00783
   Atom   14 Element H  Has Mass    1.00783
   Atom   15 Element H  Has Mass    1.00783
   Molecular Mass:   130.026620 amu
   Principal axes and moments of inertia in amu*Bohr^2:
                             1           2           3
    Eigenvalues --     1307.22663  3017.60888  3682.80043
          X               0.99867    -0.05124    -0.00574
          Y               0.05129     0.99865     0.00854
          Z               0.00529    -0.00883     0.99995
   Rotational Symmetry Number is   1
   The Molecule is an Asymmetric Top
   Translational Enthalpy:        0.889 kcal/mol
   Rotational Enthalpy:           0.889 kcal/mol
   Vibrational Enthalpy:         59.538 kcal/mol
   gas constant (RT):             0.592 kcal/mol
   Translational Entropy:        40.501  cal/mol.K
   Rotational Entropy:           31.052  cal/mol.K
   Vibrational Entropy:          45.931  cal/mol.K

   Total Enthalpy:               61.908 kcal/mol
   Total Entropy:               117.484  cal/mol.K

 Total job time:  2105.54s(wall), 2105.51s(cpu)
        *  Thank you very much for using Q-Chem.  Have a nice day.  *
