 Q-Chem 4.3, Q-Chem, Inc., Pleasanton, CA (2015)
 Q-Chem 4.3.0 for Intel X86 Linux

User input:
--------------------------------------------------------------
$comment
Title
$end

$molecule
-2 1
C         2.634         0.037         -0.699
O         2.215         0.710          0.332
O         3.711        -0.588         -0.776
C         1.658         0.109         -1.804
O        -0.179         1.384         -0.053
C         0.622         0.526         -2.360
O        -2.044        -2.302         -0.484
C        -2.848        -1.997         -1.237
H        -2.728         0.123          1.813
H        -2.767         1.924          1.965
H        -2.549         0.901          3.455
C        -3.021         0.970          2.457
H        -0.103         0.996         -1.205
H         0.854         1.123          0.220
H        -0.813         0.874          0.500
$end

$molecule
READ
$end

$solvent
CavityRadius    30
Dielectric     78.39
$end

$rem
jobtype          FREQ
exchange         b3lyp
basis            6-31+G(d)
pdb_print 2
SOLVENT_METHOD ONSAGER
NBO TRUE
$end

--------------------------------------------------------------

   20    -494.8835203846      2.04E-09 Convergence criterion met
 Total energy in the final basis set = -494.8835203846
 Frequency:     -1311.33                 -65.68                 -18.36
 Force Cnst:      1.0978                 0.0096                 0.0015
 Red. Mass:       1.0836                 3.7654                 7.4394
 IR Intens:     1093.208                 86.182                 22.818
 Frequency:        15.59                  24.35                  55.91
 Force Cnst:      0.0012                 0.0033                 0.0095
 Red. Mass:       8.6225                 9.4314                 5.1569
 IR Intens:        7.853                 10.467                 34.012
 Frequency:        71.52                  98.77                 133.83
 Force Cnst:      0.0152                 0.0084                 0.0726
 Red. Mass:       5.0328                 1.4667                 6.8802
 IR Intens:       17.401                 16.991                  6.546
 Frequency:       138.86                 144.75                 201.78
 Force Cnst:      0.0723                 0.0589                 0.0261
 Red. Mass:       6.3660                 4.7689                 1.0884
 IR Intens:        3.215                  1.982                 45.679
 Frequency:       239.24                 252.37                 263.81
 Force Cnst:      0.0552                 0.1278                 0.1893
 Red. Mass:       1.6361                 3.4057                 4.6167
 IR Intens:       57.519                 53.274                 28.675
 Frequency:       395.12                 462.48                 557.74
 Force Cnst:      0.4301                 0.8520                 1.8094
 Red. Mass:       4.6754                 6.7609                 9.8723
 IR Intens:      349.820                 21.469                 20.909
 Frequency:       592.73                 657.78                 719.34
 Force Cnst:      0.2310                 2.8138                 0.3409
 Red. Mass:       1.1158                11.0379                 1.1181
 IR Intens:      181.705                 73.220                170.067
 Frequency:       754.00                 781.03                 893.38
 Force Cnst:      0.3983                 2.8746                 6.4034
 Red. Mass:       1.1891                 7.9981                13.6171
 IR Intens:      252.772                 25.085                 47.393
 Frequency:      1089.43                1275.02                1323.78
 Force Cnst:      0.7571                 5.8032                 1.1407
 Red. Mass:       1.0827                 6.0587                 1.1048
 IR Intens:      105.207                827.202                422.621
 Frequency:      1450.19                1461.34                1556.16
 Force Cnst:      1.3429                 1.3632                 1.6449
 Red. Mass:       1.0838                 1.0835                 1.1529
 IR Intens:        1.453                  3.765                456.852
 Frequency:      1574.97                1688.55                1902.69
 Force Cnst:      2.5886                 3.3144                 2.3749
 Red. Mass:       1.7712                 1.9730                 1.1134
 IR Intens:     2115.005                 96.106                928.056
 Frequency:      2026.34                2103.27                2931.91
 Force Cnst:     28.7040                33.9301                 5.1735
 Red. Mass:      11.8650                13.0181                 1.0215
 IR Intens:       33.670               1137.441                195.933
 Frequency:      3026.14                3039.70                3542.88
 Force Cnst:      5.9508                 6.0057                 7.8846
 Red. Mass:       1.1029                 1.1032                 1.0661
 IR Intens:       78.562                 96.043                738.122
 Total job time:  2144.53s(wall), 2135.36s(cpu)
        *  Thank you very much for using Q-Chem.  Have a nice day.  *
 Q-Chem 4.3, Q-Chem, Inc., Pleasanton, CA (2015)
 Q-Chem 4.3.0 for Intel X86 Linux

User input:
--------------------------------------------------------------

$molecule
READ
$end

$solvent
CavityRadius    30
Dielectric     78.39
$end

$rem
jobtype          TS
exchange         b3lyp
basis            6-31+G(d)
geom_opt_maxcyc  100
SOLVENT_METHOD ONSAGER
$end

--------------------------------------------------------------

   20    -494.8835203846      2.04E-09 Convergence criterion met
 Total energy in the final basis set = -494.8835203846
   14    -494.8833532434      6.90E-09 Convergence criterion met
 Total energy in the final basis set = -494.8833532434
   15    -494.8830605693      3.94E-09 Convergence criterion met
 Total energy in the final basis set = -494.8830605693
   15    -494.8824646461      6.06E-09 Convergence criterion met
 Total energy in the final basis set = -494.8824646461
   13    -494.8844430088      9.92E-09 Convergence criterion met
 Total energy in the final basis set = -494.8844430088
   15    -494.8847928421      9.82E-09 Convergence criterion met
 Total energy in the final basis set = -494.8847928421
   15    -494.8834969176      7.09E-09 Convergence criterion met
 Total energy in the final basis set = -494.9107670806
   17    -494.9144993368      3.30E-09 Convergence criterion met
 Total energy in the final basis set = -494.9144993368
   17    -494.9181030180      3.49E-09 Convergence criterion met
 Total energy in the final basis set = -494.9181030180
   17    -494.9212345175      2.10E-09 Convergence criterion met
 Total energy in the final basis set = -494.9212345175
   16    -494.9249804718      8.25E-09 Convergence criterion met
 Total energy in the final basis set = -494.9249804718
   16    -494.9283410718      5.57E-09 Convergence criterion met
 Total energy in the final basis set = -494.9283410718
   16    -494.9306735595      6.13E-09 Convergence criterion met
 Total energy in the final basis set = -494.9306735595
 Q-Chem 4.3, Q-Chem, Inc., Pleasanton, CA (2015)
 Q-Chem 4.3.0 for Intel X86 Linux

User input:
--------------------------------------------------------------

$molecule
READ
$end

$solvent
CavityRadius    30
Dielectric     78.39
$end

$rem
jobtype          FREQ
exchange         b3lyp
basis            6-31+G(d)
pdb_print 2
SOLVENT_METHOD ONSAGER
NBO TRUE
$end
--------------------------------------------------------------

             Standard Nuclear Orientation (Angstroms)
    I     Atom           X                Y                Z
 ----------------------------------------------------------------
    1      C       2.9307049302    -0.0229594319     0.4525914092
    2      O       2.2684910633     0.9876973175     0.8288489050
    3      O       3.9537466194    -0.5578873728     0.9297430945
    4      C       2.2578413253    -0.5516310138    -0.7779731421
    5      O      -0.2664701032     1.4212523511    -0.9182843217
    6      C       1.4399880139    -0.7186760340    -1.6781676315
    7      O      -3.1811569978    -2.0980108530     0.6814156025
    8      C      -3.9136264738    -2.3914852664    -0.1436077340
    9      H      -4.0717026845     1.3586281488     0.5929133188
   10      H      -4.0436790093     2.6988732801    -0.6199234861
   11      H      -3.9942558028     3.0806570216     1.1516701071
   12      C      -4.3816124802     2.3932476873     0.3829108931
   13      H       0.5434115866    -0.2111828569    -2.0430282089
   14      H       0.4678300082     1.3685150810    -0.2613703431
   15      H      -1.0982606442     1.4291221350    -0.4085703982
 ----------------------------------------------------------------

   20    -494.9317725985      6.96E-09 Convergence criterion met
 Total energy in the final basis set = -494.9317725985

                    Orbital Energies (a.u.)
 --------------------------------------------------------------

 Alpha MOs
 -- Occupied --
-19.078 -18.917 -18.878 -18.873 -10.125 -10.066  -9.967  -9.949
 -9.869  -0.975  -0.801  -0.765  -0.719  -0.519  -0.389  -0.367
 -0.356  -0.289  -0.286  -0.285  -0.257  -0.213  -0.197  -0.183
 -0.175  -0.147  -0.092  -0.091  -0.078  -0.058  -0.046  -0.027
 -0.023  -0.003   0.113

          Ground-State Mulliken Net Atomic Charges

     Atom                 Charge (a.u.)
  ----------------------------------------
      1 C                     0.298250
      2 O                    -0.605161
      3 O                    -0.622638
      4 C                    -0.214429
      5 O                    -1.025294
      6 C                    -0.126793
      7 O                    -0.138525
      8 C                     0.042712
      9 H                     0.120626
     10 H                     0.117322
     11 H                     0.112919
     12 C                    -1.255508
     13 H                     0.277196
     14 H                     0.542338
     15 H                     0.476986
  ----------------------------------------
  Sum of atomic charges =    -2.000000

                    Cartesian Multipole Moments
 -----------------------------------------------------------------
    Charge (ESU x 10^10)
                -9.6064
    Dipole Moment (Debye)
         X       8.3983      Y      -9.5589      Z      -1.6941
       Tot      12.8364
    Quadrupole Moments (Debye-Ang)
        XX    -224.0007     XY      49.3291     YY    -100.2436
        XZ      -2.2426     YZ      -6.1711     ZZ     -74.4762

 Frequency:       -60.35                 -54.50                 -36.51
 Force Cnst:      0.0150                 0.0085                 0.0050
 Red. Mass:       6.9780                 4.8492                 6.3109
 IR Intens:        8.038                 53.961                 35.819
 Frequency:       -26.56                 -13.84                  -8.90
 Force Cnst:      0.0029                 0.0009                 0.0005
 Red. Mass:       7.0442                 7.7421                10.6706
 IR Intens:        3.168                  7.504                  5.404
 Frequency:        27.14                  49.18                  53.32
 Force Cnst:      0.0031                 0.0048                 0.0112
 Red. Mass:       7.1652                 3.3457                 6.6972
 IR Intens:        7.398                  5.295                 11.296
 Frequency:        64.43                  78.36                 144.02
 Force Cnst:      0.0032                 0.0342                 0.0129
 Red. Mass:       1.2947                 9.4405                 1.0523
 IR Intens:        1.155                  4.618                104.297
 Frequency:       197.73                 204.88                 253.16
 Force Cnst:      0.0679                 0.0357                 0.2437
 Red. Mass:       2.9470                 1.4456                 6.4525
 IR Intens:       41.467                 64.162                  1.320
 Frequency:       263.85                 401.57                 518.70
 Force Cnst:      0.2554                 0.0988                 0.1785
 Red. Mass:       6.2261                 1.0403                 1.1259
 IR Intens:        3.221                 39.804                121.689
 Frequency:       542.81                 570.76                 645.46
 Force Cnst:      1.0853                 1.2291                 0.2908
 Red. Mass:       6.2519                 6.4037                 1.1846
 IR Intens:        6.338                 97.303                166.639
 Frequency:       735.00                 746.72                 765.06
 Force Cnst:      0.4731                 0.4284                 0.4185
 Red. Mass:       1.4864                 1.3039                 1.2136
 IR Intens:       27.876                 59.010                666.709
 Frequency:       796.62                 844.97                1313.95
 Force Cnst:      0.8629                 5.2293                14.0042
 Red. Mass:       2.3078                12.4312                13.7675
 IR Intens:       62.143                 96.809                290.140
 Frequency:      1453.85                1459.52                1681.62
 Force Cnst:      1.3488                 1.3590                12.7349
 Red. Mass:       1.0831                 1.0828                 7.6434
 IR Intens:        0.941                  0.016                771.458
 Frequency:      1703.68                2097.22                2101.25
 Force Cnst:      1.9498                18.6710                32.2460
 Red. Mass:       1.1402                 7.2049                12.3957
 IR Intens:       92.792                108.098               1991.099
 Frequency:      2963.58                3059.14                3067.55
 Force Cnst:      5.2810                 6.0886                 6.1215
 Red. Mass:       1.0206                 1.1043                 1.1041
 IR Intens:      259.537                108.897                 49.360
 Frequency:      3197.79                3490.59                3694.41
 Force Cnst:      6.8120                 7.5836                 8.6436
 Red. Mass:       1.1306                 1.0564                 1.0749
 IR Intens:       92.939                250.373                442.990

 STANDARD THERMODYNAMIC QUANTITIES AT   298.15 K  AND     1.00 ATM

   This Molecule has  6 Imaginary Frequencies
   Zero point vibrational energy:       56.022 kcal/mol

   Atom    1 Element C  Has Mass   12.00000
   Atom    2 Element O  Has Mass   15.99491
   Atom    3 Element O  Has Mass   15.99491
   Atom    4 Element C  Has Mass   12.00000
   Atom    5 Element O  Has Mass   15.99491
   Atom    6 Element C  Has Mass   12.00000
   Atom    7 Element O  Has Mass   15.99491
   Atom    8 Element C  Has Mass   12.00000
   Atom    9 Element H  Has Mass    1.00783
   Atom   10 Element H  Has Mass    1.00783
   Atom   11 Element H  Has Mass    1.00783
   Atom   12 Element C  Has Mass   12.00000
   Atom   13 Element H  Has Mass    1.00783
   Atom   14 Element H  Has Mass    1.00783
   Atom   15 Element H  Has Mass    1.00783
   Molecular Mass:   130.026620 amu
   Principal axes and moments of inertia in amu*Bohr^2:
                             1           2           3
    Eigenvalues --     1389.87722  4454.32505  5146.37105
          X               0.99936    -0.03541    -0.00516
          Y               0.03547     0.99931     0.01120
          Z               0.00476    -0.01137     0.99992
   Rotational Symmetry Number is   1
   The Molecule is an Asymmetric Top
   Translational Enthalpy:        0.889 kcal/mol
   Rotational Enthalpy:           0.889 kcal/mol
   Vibrational Enthalpy:         61.251 kcal/mol
   gas constant (RT):             0.592 kcal/mol
   Translational Entropy:        40.501  cal/mol.K
   Rotational Entropy:           31.833  cal/mol.K
   Vibrational Entropy:          38.373  cal/mol.K

   Total Enthalpy:               63.621 kcal/mol
   Total Entropy:               110.706  cal/mol.K

 Total job time:  1811.00s(wall), 1811.56s(cpu)
        *  Thank you very much for using Q-Chem.  Have a nice day.  *
