 Q-Chem 4.3, Q-Chem, Inc., Pleasanton, CA (2015)
 Q-Chem 4.3.0 for Intel X86 Linux

User input:
--------------------------------------------------------------
$comment
Optimize the saddle point structure in the C7eq->C7ax conformational change of alanine dipeptide
Job 1: Hessian evaluation.  This can sometimes be done at a lower level of theory
Job 2: Saddle point optimization.   Note that the Hessian from a previous calculation is read in.
Job 3: Hessian evaluation and frequency calculation.  This confirms that we indeed reach a saddle point.
$end

$molecule
0  1
C 3.19498   0.55128   0.54366
H 3.59029   1.40911   -0.01245
H 3.74099   -0.34822  0.24677
H 3.38006   0.75469   1.60271
C 1.69020   0.51356   0.33819
O 1.02580   1.51015   0.73682
N 1.17338   -0.59609  -0.27839
H 1.85193   -1.30016  -0.50478
C -0.20809  -1.03310  -0.71192
H -0.12609  -1.16570  -1.80171
C -0.48943  -2.42344  -0.09157
H -0.58992  -2.34798  0.99546
H -1.42342  -2.81371  -0.50398
H 0.31625   -3.13252  -0.31951
C -1.49990  -0.15827  -0.57196
O -2.55539  -0.70393  -1.01112
N -1.43599  1.07807   -0.04307
H -0.54314  1.41943   0.29195
C -2.62334  1.93704   0.09902
H -2.54722  2.47568   1.05202
H -3.52914  1.33873   0.08717
H -2.67451  2.67852   -0.70846
$end

$rem
jobtype          freq
exchange         hf
basis            6-31+G(d)
$end

--------------------------------------------------------------

   15    -492.8395148587      4.78E-09 Convergence criterion met
 Total energy in the final basis set = -492.8395148587
 Frequency:       135.34                 151.48                 186.68
 Force Cnst:      0.0436                 0.0632                 0.0910
 Red. Mass:       4.0391                 4.6737                 4.4302
 IR Intens:        0.937                 14.216                  1.132
 Frequency:       221.47                 254.50                 290.64
 Force Cnst:      0.1052                 0.1413                 0.2150
 Red. Mass:       3.6397                 3.7019                 4.3208
 IR Intens:        6.026                  0.545                  5.756
 Frequency:       305.53                 322.75                 342.75
 Force Cnst:      0.0576                 0.0644                 0.1897
 Red. Mass:       1.0476                 1.0493                 2.7414
 IR Intens:        0.748                  0.102                  4.510
 Frequency:       365.46                 397.54                 425.83
 Force Cnst:      0.3687                 0.2031                 0.1606
 Red. Mass:       4.6855                 2.1812                 1.5032
 IR Intens:        9.606                  5.478                  6.108
 Frequency:       459.42                 597.22                 615.84
 Force Cnst:      0.4659                 0.8165                 0.8305
 Red. Mass:       3.7466                 3.8855                 3.7167
 IR Intens:       10.975                 40.926                  8.534
 Frequency:       667.36                 737.18                 743.47
 Force Cnst:      0.3554                 1.3508                 0.7689
 Red. Mass:       1.3546                 4.2188                 2.3610
 IR Intens:      111.960                  6.354                  4.621
 Frequency:       856.46                 875.68                 933.82
 Force Cnst:      1.7683                 1.9171                 0.5706
 Red. Mass:       4.0916                 4.2433                 1.1105
 IR Intens:       22.773                  0.954                 74.066
 Frequency:       956.59                 997.38                1069.23
 Force Cnst:      1.6182                 1.7081                 2.3394
 Red. Mass:       3.0014                 2.9144                 3.4730
 IR Intens:        2.575                  1.165                  5.448
 Frequency:      1133.11                1152.15                1187.19
 Force Cnst:      2.6087                 1.2845                 1.3972
 Red. Mass:       3.4485                 1.6424                 1.6825
 IR Intens:        7.833                 58.193                 12.632
 Frequency:      1207.93                1234.71                1264.43
 Force Cnst:      1.5563                 1.5690                 1.2234
 Red. Mass:       1.8103                 1.7468                 1.2987
 IR Intens:        5.074                 28.022                 12.552
 Frequency:      1288.22                1365.10                1404.81
 Force Cnst:      1.4885                 3.1797                 2.6360
 Red. Mass:       1.5224                 2.8960                 2.2671
 IR Intens:       20.731                228.428                 22.536
 Frequency:      1477.36                1483.80                1530.13
 Force Cnst:      1.8835                 1.9884                 3.6304
 Red. Mass:       1.4647                 1.5329                 2.6318
 IR Intens:      363.271                 80.640                108.569
 Frequency:      1566.78                1574.55                1612.84
 Force Cnst:      1.8418                 1.8311                 2.7005
 Red. Mass:       1.2734                 1.2535                 1.7620
 IR Intens:      103.302                 14.449                208.931
 Frequency:      1620.46                1635.70                1637.26
 Force Cnst:      1.6657                 1.9616                 1.6798
 Red. Mass:       1.0766                 1.2444                 1.0636
 IR Intens:       18.031                110.597                  3.206
 Frequency:      1641.30                1644.85                1655.53
 Force Cnst:      1.8012                 1.7684                 1.8507
 Red. Mass:       1.1348                 1.1094                 1.1461
 IR Intens:       57.401                 39.558                 35.944
 Frequency:      1666.38                1739.93                1799.40
 Force Cnst:      2.0798                 2.8885                 2.6082
 Red. Mass:       1.2712                 1.6194                 1.3672
 IR Intens:      132.365                136.848                140.317
 Frequency:      3085.62                3107.36                3114.92
 Force Cnst:      6.0881                 5.9282                 5.9635
 Red. Mass:       1.0853                 1.0420                 1.0432
 IR Intens:       14.252                 81.016                 36.097
 Frequency:      3130.34                3146.36                3174.73
 Force Cnst:      5.9907                 6.4427                 6.5152
 Red. Mass:       1.0376                 1.1046                 1.0971
 IR Intens:        7.685                 41.715                 34.468
 Frequency:      3187.79                3205.06                3216.89
 Force Cnst:      6.5864                 6.6909                 6.7168
 Red. Mass:       1.1001                 1.1055                 1.1016
 IR Intens:        8.559                 20.352                  8.195
 Frequency:      3276.49                3544.02                3772.20
 Force Cnst:      6.9342                 8.0360                 9.0363
 Red. Mass:       1.0963                 1.0859                 1.0778
 IR Intens:       10.028                903.561                 34.109
 Total job time:  2145.29s(wall), 2145.20s(cpu)
        *  Thank you very much for using Q-Chem.  Have a nice day.  *
 Q-Chem 4.3, Q-Chem, Inc., Pleasanton, CA (2015)
 Q-Chem 4.3.0 for Intel X86 Linux

User input:
--------------------------------------------------------------

$molecule
READ
$end

$rem
jobtype          ts
exchange         hf
basis            6-31+G(d)
geom_opt_hessian read
geom_opt_maxcyc  100
$end

--------------------------------------------------------------

   15    -492.8395148587      4.78E-09 Convergence criterion met
 Total energy in the final basis set = -492.8395148587
   12    -492.8405070224      4.51E-09 Convergence criterion met
 Total energy in the final basis set = -492.8405070224
   13    -492.8540465890      6.46E-09 Convergence criterion met
 Total energy in the final basis set = -492.8540465890
   12    -492.8547564921      7.07E-09 Convergence criterion met
 Total energy in the final basis set = -492.8547564921
   12    -492.8548855041      6.10E-09 Convergence criterion met
 Total energy in the final basis set = -492.8548855041
   12    -492.8551855761      9.22E-09 Convergence criterion met
 Total energy in the final basis set = -492.8551855761
   12    -492.8556938308      9.41E-09 Convergence criterion met
   12    -492.8565261395      7.05E-09 Convergence criterion met
 Total energy in the final basis set = -492.8565261395
   12    -492.8565379458      5.83E-09 Convergence criterion met
 Total energy in the final basis set = -492.8565379458
   11    -492.8565419891      7.12E-09 Convergence criterion met
 Total energy in the final basis set = -492.8565419891
   13    -492.8565297057      3.29E-09 Convergence criterion met
 Total energy in the final basis set = -492.8565297057
   12    -492.8565428207      7.59E-09 Convergence criterion met
 Total energy in the final basis set = -492.8565428207
   10    -492.8565433420      6.59E-09 Convergence criterion met
 Total energy in the final basis set = -492.8565433420
 Final energy is   -492.856543341995
 **  OPTIMIZATION CONVERGED  **
        *  Thank you very much for using Q-Chem.  Have a nice day.  *
 Q-Chem 4.3, Q-Chem, Inc., Pleasanton, CA (2015)
 Q-Chem 4.3.0 for Intel X86 Linux

User input:
--------------------------------------------------------------

$molecule
READ
$end

$rem
jobtype          freq
exchange         hf
basis            6-31+G(d)
$end
--------------------------------------------------------------

             Standard Nuclear Orientation (Angstroms)
    I     Atom           X                Y                Z
 ----------------------------------------------------------------
    1      C      -3.3868790938    -0.4789574990    -0.1078066548
    2      H      -3.6977443532    -0.8482193910    -1.0790603426
    3      H      -3.8218191154     0.5007609850     0.0480409278
    4      H      -3.7607774259    -1.1627054186     0.6421809522
    5      C      -1.8723308011    -0.4938964186    -0.0598515979
    6      O      -1.2874952366    -1.5457131855     0.0399572412
    7      N      -1.2870278943     0.7172625153    -0.1452206930
    8      H      -1.9281619144     1.4759813440    -0.2106062673
    9      C       0.0988871914     1.2012903862    -0.2665411880
   10      H       0.1476056750     1.7334585331    -1.2058331579
   11      C       0.3673635972     2.1963591334     0.8720463391
   12      H       0.3374012186     1.6959136075     1.8331150248
   13      H       1.3380395682     2.6581017905     0.7424617539
   14      H      -0.3830914840     2.9816257451     0.8719201359
   15      C       1.3140961686     0.2598074947    -0.3442028854
   16      O       2.2476670539     0.6726207333    -0.9875973275
   17      N       1.3735172860    -0.8516429609     0.4014672031
   18      H       0.5044453916    -1.2948779419     0.6099868526
   19      C       2.5500025529    -1.6963531665     0.3328009687
   20      H       2.4226017815    -2.5089831745     1.0353381803
   21      H       3.4305500497    -1.1307015877     0.6025780406
   22      H       2.6973126364    -2.1044513340    -0.6613968711
 ----------------------------------------------------------------

   14    -492.8565433432      8.53E-09 Convergence criterion met
 Total energy in the final basis set = -492.8565433432

                    Orbital Energies (a.u.)
 --------------------------------------------------------------

 Alpha MOs
 -- Occupied --
-20.547 -20.527 -15.615 -15.572 -11.376 -11.350 -11.297 -11.249
-11.247 -11.236  -1.413  -1.393  -1.262  -1.225  -1.070  -1.007
 -0.952  -0.890  -0.827  -0.776  -0.719  -0.710  -0.665  -0.639
 -0.631  -0.628  -0.607  -0.591  -0.584  -0.574  -0.553  -0.542
 -0.536  -0.526  -0.508  -0.441  -0.425  -0.406  -0.383

          Ground-State Mulliken Net Atomic Charges

     Atom                 Charge (a.u.)
  ----------------------------------------
      1 C                    -0.771396
      2 H                     0.238291
      3 H                     0.193645
      4 H                     0.241376
      5 C                     0.761305
      6 O                    -0.664417
      7 N                    -0.660444
      8 H                     0.444695
      9 C                    -0.261442
     10 H                     0.244361
     11 C                    -0.557720
     12 H                     0.227878
     13 H                     0.239557
     14 H                     0.190010
     15 C                     0.571980
     16 O                    -0.586583
     17 N                    -0.635049
     18 H                     0.520208
     19 C                    -0.347728
     20 H                     0.189465
     21 H                     0.214454
     22 H                     0.207556
  ----------------------------------------
  Sum of atomic charges =     0.000000

                    Cartesian Multipole Moments
 -----------------------------------------------------------------
    Charge (ESU x 10^10)
                 0.0000
    Dipole Moment (Debye)
         X      -4.3548      Y       1.8079      Z       1.4805
       Tot       4.9421
    Quadrupole Moments (Debye-Ang)
        XX     -59.0695     XY      -9.3202     YY     -60.5649
        XZ       6.1620     YZ       0.5958     ZZ     -63.5151

 Frequency:       -96.43                  26.58                  45.01
 Force Cnst:      0.0246                 0.0018                 0.0013
 Red. Mass:       4.4884                 4.3462                 1.1293
 IR Intens:        4.100                  6.165                  1.923
 Frequency:       108.95                 136.30                 150.96
 Force Cnst:      0.0197                 0.0184                 0.0209
 Red. Mass:       2.8224                 1.6788                 1.5549
 IR Intens:        4.988                  1.006                  2.277
 Frequency:       202.12                 240.40                 274.61
 Force Cnst:      0.0755                 0.1419                 0.0529
 Red. Mass:       3.1356                 4.1680                 1.1916
 IR Intens:        3.245                  8.565                  2.442
 Frequency:       309.69                 329.25                 401.89
 Force Cnst:      0.1590                 0.2549                 0.4074
 Red. Mass:       2.8138                 3.9904                 4.2812
 IR Intens:        4.621                 12.571                  5.462
 Frequency:       411.25                 574.60                 606.15
 Force Cnst:      0.3592                 0.4868                 0.3590
 Red. Mass:       3.6048                 2.5022                 1.6583
 IR Intens:        9.156                 39.785                 88.211
 Frequency:       652.51                 669.69                 699.57
 Force Cnst:      0.7371                 0.4813                 0.4530
 Red. Mass:       2.9383                 1.8213                 1.5710
 IR Intens:        5.924                 45.648                100.357
 Frequency:       763.65                 832.91                 915.32
 Force Cnst:      1.1377                 2.2474                 1.4451
 Red. Mass:       3.3113                 5.4984                 2.9275
 IR Intens:        1.712                 12.811                 24.390
 Frequency:       993.09                1018.44                1100.68
 Force Cnst:      1.4822                 1.3681                 1.7195
 Red. Mass:       2.5508                 2.2387                 2.4089
 IR Intens:        1.041                  3.745                  4.161
 Frequency:      1144.77                1164.99                1183.91
 Force Cnst:      1.2708                 1.3956                 2.6161
 Red. Mass:       1.6459                 1.7454                 3.1678
 IR Intens:        7.875                 11.564                  8.503
 Frequency:      1205.45                1253.80                1264.57
 Force Cnst:      1.8198                 1.2035                 2.1380
 Red. Mass:       2.1256                 1.2994                 2.2692
 IR Intens:        3.787                  7.588                 18.426
 Frequency:      1308.08                1406.77                1454.32
 Force Cnst:      1.7019                 2.5630                 1.8886
 Red. Mass:       1.6882                 2.1981                 1.5156
 IR Intens:        2.435                141.341                 28.992
 Frequency:      1487.32                1507.91                1555.47
 Force Cnst:      2.6405                 1.6542                 1.7936
 Red. Mass:       2.0259                 1.2348                 1.2582
 IR Intens:       99.890                105.374                 30.430
 Frequency:      1556.92                1603.13                1610.82
 Force Cnst:      1.7633                 1.8032                 1.6075
 Red. Mass:       1.2346                 1.1908                 1.0515
 IR Intens:       16.722                  5.941                 10.768
 Frequency:      1629.28                1630.29                1632.42
 Force Cnst:      1.6430                 1.6635                 1.6945
 Red. Mass:       1.0505                 1.0623                 1.0793
 IR Intens:       11.464                 10.188                  5.005
 Frequency:      1637.84                1649.33                1746.94
 Force Cnst:      1.6893                 1.6911                 3.1294
 Red. Mass:       1.0689                 1.0551                 1.7404
 IR Intens:       19.441                  0.834                346.319
 Frequency:      1755.33                1894.33                1921.10
 Force Cnst:      3.1251                16.4636                15.2702
 Red. Mass:       1.7215                 7.7868                 7.0225
 IR Intens:      169.423                354.394                470.418
 Frequency:      3208.65                3221.73                3224.93
 Force Cnst:      6.3102                 6.3507                 6.3584
 Red. Mass:       1.0403                 1.0385                 1.0377
 IR Intens:       35.067                 59.310                  8.510
 Frequency:      3266.26                3281.84                3288.46
 Force Cnst:      6.8775                 6.9309                 7.0036
 Red. Mass:       1.0942                 1.0922                 1.0992
 IR Intens:       10.907                 27.847                 37.657
 Frequency:      3290.37                3308.06                3315.95
 Force Cnst:      7.0366                 7.1123                 7.1448
 Red. Mass:       1.1031                 1.1031                 1.1029
 IR Intens:       19.565                 21.575                 10.202
 Frequency:      3317.72                3827.18                3863.81
 Force Cnst:      7.1727                 9.3135                 9.4778
 Red. Mass:       1.1060                 1.0792                 1.0775
 IR Intens:       26.407                279.785                 27.302

 STANDARD THERMODYNAMIC QUANTITIES AT   298.15 K  AND     1.00 ATM

   This Molecule has  1 Imaginary Frequencies
   Zero point vibrational energy:      125.922 kcal/mol

   Atom    1 Element C  Has Mass   12.00000
   Atom    2 Element H  Has Mass    1.00783
   Atom    3 Element H  Has Mass    1.00783
   Atom    4 Element H  Has Mass    1.00783
   Atom    5 Element C  Has Mass   12.00000
   Atom    6 Element O  Has Mass   15.99491
   Atom    7 Element N  Has Mass   14.00307
   Atom    8 Element H  Has Mass    1.00783
   Atom    9 Element C  Has Mass   12.00000
   Atom   10 Element H  Has Mass    1.00783
   Atom   11 Element C  Has Mass   12.00000
   Atom   12 Element H  Has Mass    1.00783
   Atom   13 Element H  Has Mass    1.00783
   Atom   14 Element H  Has Mass    1.00783
   Atom   15 Element C  Has Mass   12.00000
   Atom   16 Element O  Has Mass   15.99491
   Atom   17 Element N  Has Mass   14.00307
   Atom   18 Element H  Has Mass    1.00783
   Atom   19 Element C  Has Mass   12.00000
   Atom   20 Element H  Has Mass    1.00783
   Atom   21 Element H  Has Mass    1.00783
   Atom   22 Element H  Has Mass    1.00783
   Molecular Mass:   144.089920 amu
   Principal axes and moments of inertia in amu*Bohr^2:
                             1           2           3
    Eigenvalues --      928.47038  1972.86141  2608.66986
          X               0.99930    -0.03529     0.01217
          Y               0.03510     0.99927     0.01509
          Z              -0.01269    -0.01465     0.99981
   Rotational Symmetry Number is   1
   The Molecule is an Asymmetric Top
   Translational Enthalpy:        0.889 kcal/mol
   Rotational Enthalpy:           0.889 kcal/mol
   Vibrational Enthalpy:        130.844 kcal/mol
   gas constant (RT):             0.592 kcal/mol
   Translational Entropy:        40.807  cal/mol.K
   Rotational Entropy:           29.947  cal/mol.K
   Vibrational Entropy:          33.044  cal/mol.K

   Total Enthalpy:              133.214 kcal/mol
   Total Entropy:               103.798  cal/mol.K

 Total job time:  2151.53s(wall), 2151.28s(cpu)
        *  Thank you very much for using Q-Chem.  Have a nice day.  *
