 Q-Chem 4.3, Q-Chem, Inc., Pleasanton, CA (2015)
 Q-Chem 4.3.0 for Intel X86 Linux

User input:
--------------------------------------------------------------
$rem
JOBTYPE Opt
EXCHANGE B3LYP
BASIS 6-31+G(d)
GUI=2
SOLVENT_METHOD ONSAGER
pdb_print 2
NBO TRUE
$end

$comment
product
$end

$solvent
CavityRadius    30
Dielectric     78.39
$end

$molecule
-2 1
C        3.52200       -1.27800        2.47300
O        4.59900       -1.30300        1.83000
O        3.34100       -1.58600        3.73300
C        2.33500       -0.63100        1.79800
C        1.98400       -1.87300       -0.50400
O        1.34900       -0.20700        2.50100
C        2.12700       -0.48800        0.24600
O        1.05700        0.26200       -0.13700
C        3.36100        0.25500       -0.34100
H        3.14100        0.37800       -1.44100
H        4.31400       -0.45900       -0.37600
H        3.75000        1.22500       -0.00600
H        0.82900       -2.09700       -0.30800
H        2.53400       -2.74800       -0.01400
H        2.31800       -1.80800       -1.52600
$end

--------------------------------------------------------------

   17    -495.0032910533      9.72E-09 Convergence criterion met
 Total energy in the final basis set = -495.0032910533
   14    -495.0251372058      7.56E-09 Convergence criterion met
 Total energy in the final basis set = -495.0251372058
   14    -495.0369764784      6.48E-09 Convergence criterion met
 Total energy in the final basis set = -495.0369764784
   14    -495.0420628102      9.03E-09 Convergence criterion met
 Total energy in the final basis set = -495.0420628102
   13    -495.0440234051      8.57E-09 Convergence criterion met
 Total energy in the final basis set = -495.0440234051
   13    -495.0452987671      4.00E-09 Convergence criterion met
 Total energy in the final basis set = -495.0452987671
   13    -495.0463409475      5.42E-09 Convergence criterion met
 Total energy in the final basis set = -495.0463409475
   13    -495.0473821930      6.61E-09 Convergence criterion met
   12    -495.0531427255      8.54E-09 Convergence criterion met
 Total energy in the final basis set = -495.0531427255
   12    -495.0532005973      4.25E-09 Convergence criterion met
 Total energy in the final basis set = -495.0532005973
   12    -495.0532393735      5.13E-09 Convergence criterion met
 Total energy in the final basis set = -495.0532393735
   12    -495.0532534320      3.85E-09 Convergence criterion met
 Total energy in the final basis set = -495.0532534320
   12    -495.0532597651      3.77E-09 Convergence criterion met
 Total energy in the final basis set = -495.0532597651
   11    -495.0532609897      7.78E-09 Convergence criterion met
 Total energy in the final basis set = -495.0532609897

             Standard Nuclear Orientation (Angstroms)
    I     Atom           X                Y                Z
 ----------------------------------------------------------------
    1      C       1.4935028975     0.1812028224    -0.3727505825
    2      O       1.8508357048     1.3092260015     0.0782853889
    3      O       1.9890980432    -0.4654529621    -1.3377337153
    4      C       0.3074847651    -0.4970047181     0.3736340094
    5      C      -1.2568070873     0.4480764842    -1.4249226208
    6      O       0.5661315374    -1.3153252464     1.2540585944
    7      C      -1.2050155897    -0.0979693089     0.0458113524
    8      O      -2.0954245897    -1.0799174036     0.2494524472
    9      C      -1.4636063395     1.1393772257     0.9999165071
   10      H      -2.4836591161     1.5023736158     0.7939198388
   11      H      -0.7392445345     1.9575931359     0.8711484952
   12      H      -1.4278605321     0.7845544868     2.0383744218
   13      H      -1.0588771122    -0.3749336341    -2.1229899558
   14      H      -0.5418594438     1.2597178534    -1.6286551794
   15      H      -2.2802989386     0.8127168557    -1.6026903930
 ----------------------------------------------------------------

   11    -495.0532619356      5.94E-09 Convergence criterion met
 Total energy in the final basis set = -495.0532619356
 Final energy is   -495.053261935611
 **  OPTIMIZATION CONVERGED  **

                    Orbital Energies (a.u.)
 --------------------------------------------------------------

 Alpha MOs
 -- Occupied --
-18.842 -18.806 -18.805 -18.742  -9.976  -9.960  -9.932  -9.892
 -9.888  -0.740  -0.714  -0.640  -0.616  -0.449  -0.396  -0.336
 -0.249  -0.176  -0.155  -0.144  -0.133  -0.125  -0.114  -0.107
 -0.089  -0.072  -0.066  -0.046  -0.033   0.008   0.042   0.057
  0.073   0.113   0.122

          Ground-State Mulliken Net Atomic Charges

     Atom                 Charge (a.u.)
  ----------------------------------------
      1 C                     0.186812
      2 O                    -0.589438
      3 O                    -0.596081
      4 C                     0.391761
      5 C                    -0.625703
      6 O                    -0.469219
      7 C                    -0.126560
      8 O                    -0.664223
      9 C                    -0.611197
     10 H                     0.159925
     11 H                     0.202801
     12 H                     0.191789
     13 H                     0.201711
     14 H                     0.187832
     15 H                     0.159790
  ----------------------------------------
  Sum of atomic charges =    -2.000000

                    Cartesian Multipole Moments
 -----------------------------------------------------------------
    Charge (ESU x 10^10)
                -9.6064
    Dipole Moment (Debye)
         X      -0.5168      Y       2.4904      Z      -0.0553
       Tot       2.5441
    Quadrupole Moments (Debye-Ang)
        XX    -103.9973     XY     -10.1902     YY     -78.7994
        XZ       8.1111     YZ       1.9641     ZZ     -74.4439

 Total job time:  4359.98s(wall), 4361.43s(cpu)
        *  Thank you very much for using Q-Chem.  Have a nice day.  *
