 Q-Chem 4.3, Q-Chem, Inc., Pleasanton, CA (2015)
 Q-Chem 4.3.0 for Intel X86 Linux

User input:
--------------------------------------------------------------
sublime $comment
Title
$end

$molecule
-2 1
C         3.457        -1.303          2.639
O         4.585        -1.568          2.152
O         3.156        -1.669          3.838
C         2.431        -0.611          1.760
C         2.048        -1.964          0.324
O         1.323        -0.391          2.447
C         2.490         0.068          0.516
O         1.481         0.694          0.023
C         3.695         0.184         -0.328
H         3.485        -0.146         -1.481
H         4.489        -0.484          0.104
H         4.132         1.211         -0.539
H         1.160        -1.639         -0.299
H         1.810        -2.780          1.053
H         3.012        -2.165         -0.257
$end

$solvent
CavityRadius    30
Dielectric     78.39
$end

$molecule
READ
$end

$rem
jobtype          FREQ
exchange         b3lyp
basis            6-31+G(d)
pdb_print 2
SOLVENT_METHOD ONSAGER
NBO TRUE
$end

--------------------------------------------------------------

   18    -494.9665101620      5.05E-09 Convergence criterion met
 Total energy in the final basis set = -494.9665101620
 Frequency:      -362.05                -104.65                 128.35
 Force Cnst:      0.5224                 0.0694                 0.0589
 Red. Mass:       6.7639                10.7521                 6.0698
 IR Intens:      116.135                  0.633                  3.328
 Frequency:       176.68                 261.15                 333.29
 Force Cnst:      0.0943                 0.1771                 0.3442
 Red. Mass:       5.1272                 4.4082                 5.2595
 IR Intens:        8.673                  8.182                 33.895
 Frequency:       369.06                 441.67                 469.72
 Force Cnst:      0.4388                 1.1715                 0.9247
 Red. Mass:       5.4684                10.1928                 7.1130
 IR Intens:        4.657                  3.516                  6.039
 Frequency:       484.72                 537.09                 567.76
 Force Cnst:      0.6901                 0.2316                 0.5134
 Red. Mass:       4.9856                 1.3625                 2.7032
 IR Intens:       45.127                 28.790                 26.032
 Frequency:       579.64                 608.42                 696.33
 Force Cnst:      0.5200                 0.2787                 1.4928
 Red. Mass:       2.6270                 1.2778                 5.2255
 IR Intens:       17.606                 25.836                 33.929
 Frequency:       784.66                 829.54                 974.06
 Force Cnst:      2.8936                 3.5497                 0.6938
 Red. Mass:       7.9766                 8.7550                 1.2412
 IR Intens:       18.752                 32.897                  7.035
 Frequency:       989.68                1070.43                1121.45
 Force Cnst:      0.6795                 2.4768                 1.1642
 Red. Mass:       1.1775                 3.6688                 1.5712
 IR Intens:       17.914                117.183                  8.829
 Frequency:      1156.79                1202.58                1245.83
 Force Cnst:      1.1804                 1.0042                 6.9234
 Red. Mass:       1.4972                 1.1785                 7.5710
 IR Intens:       24.236                  9.400                155.248
 Frequency:      1350.75                1396.10                1480.50
 Force Cnst:      7.3593                 6.6425                 1.6613
 Red. Mass:       6.8460                 5.7843                 1.2864
 IR Intens:      342.091                108.191                 52.593
 Frequency:      1488.01                1502.18                1507.28
 Force Cnst:      1.4595                 1.6021                 1.7725
 Red. Mass:       1.1188                 1.2050                 1.3242
 IR Intens:       11.156                  2.811                 65.506
 Frequency:      1537.21                1586.40                1610.52
 Force Cnst:      1.5377                 5.6138                 8.9484
 Red. Mass:       1.1045                 3.7860                 5.8555
 IR Intens:        4.700                249.946                424.981
 Frequency:      2062.47                2648.58                2716.37
 Force Cnst:      2.6555                 4.2935                 4.6564
 Red. Mass:       1.0596                 1.0388                 1.0711
 IR Intens:      185.791                 78.069                151.057
 Frequency:      2795.23                2839.71                2902.01
 Force Cnst:      5.0390                 5.1614                 5.4604
 Red. Mass:       1.0946                 1.0863                 1.1005
 IR Intens:       25.833                 20.984                 28.636
 Total job time:  2970.73s(wall), 2971.24s(cpu)
        *  Thank you very much for using Q-Chem.  Have a nice day.  *
 Q-Chem 4.3, Q-Chem, Inc., Pleasanton, CA (2015)
 Q-Chem 4.3.0 for Intel X86 Linux

User input:
--------------------------------------------------------------

$molecule
READ
$end

$solvent
CavityRadius    30
Dielectric     78.39
$end

$rem
SOLVENT_METHOD ONSAGER
jobtype          TS
exchange         b3lyp
basis            6-31+G(d)
geom_opt_maxcyc  100
$end

--------------------------------------------------------------

   18    -494.9665101621      5.05E-09 Convergence criterion met
 Total energy in the final basis set = -494.9665101621
   13    -494.9747296774      4.21E-09 Convergence criterion met
 Total energy in the final basis set = -494.9747296774
   14    -494.9947387175      6.89E-09 Convergence criterion met
 Total energy in the final basis set = -494.9947387175
   14    -495.0066140326      8.47E-09 Convergence criterion met
 Total energy in the final basis set = -495.0066140326
   14    -495.0131177827      2.17E-09 Convergence criterion met
 Total energy in the final basis set = -495.0131177827
   13    -495.0146416711      9.72E-09 Convergence criterion met
 Total energy in the final basis set = -495.0146416711
   13    -495.0149083864      5.90E-09 Convergence criterion met
   12    -495.0319328808      2.60E-09 Convergence criterion met
 Total energy in the final basis set = -495.0319328808
   13    -495.0317565314      5.45E-09 Convergence criterion met
 Total energy in the final basis set = -495.0317565314
   12    -495.0319308591      7.67E-09 Convergence criterion met
 Total energy in the final basis set = -495.0319308591
   12    -495.0319302387      3.95E-09 Convergence criterion met
 Total energy in the final basis set = -495.0319302387
   11    -495.0319342870      7.38E-09 Convergence criterion met
 Total energy in the final basis set = -495.0319342870
   10    -495.0319346388      2.88E-09 Convergence criterion met
 Total energy in the final basis set = -495.0319346388
 Final energy is   -495.031934638847
 **  OPTIMIZATION CONVERGED  **
        *  Thank you very much for using Q-Chem.  Have a nice day.  *
 Q-Chem 4.3, Q-Chem, Inc., Pleasanton, CA (2015)
 Q-Chem 4.3.0 for Intel X86 Linux

User input:
--------------------------------------------------------------

$solvent
CavityRadius    30
Dielectric     78.39
$end

$molecule
READ
$end

$rem
jobtype          FREQ
exchange         b3lyp
basis            6-31+G(d)
pdb_print 2
NBO TRUE
SOLVENT_METHOD ONSAGER
$end
--------------------------------------------------------------

             Standard Nuclear Orientation (Angstroms)
    I     Atom           X                Y                Z
 ----------------------------------------------------------------
    1      C       1.2796544444     0.4766609114     0.3099049684
    2      O       0.9932076090     1.7152360433     0.1835401884
    3      O       2.3412480814    -0.0024737101     0.7660451186
    4      C       0.1411232125    -0.6134692768    -0.2499792926
    5      C       0.1153273871    -0.3159315327    -1.8181433534
    6      O       0.3684994779    -1.8957812579    -0.0198176484
    7      C      -1.2182280334    -0.1065287094     0.3532537737
    8      O      -1.7842356856    -0.6677614705     1.2915504862
    9      C      -1.9064789590     1.1284428973    -0.2561401769
   10      H      -2.3075961791     0.8794618177    -1.2508131148
   11      H      -1.1626682137     1.9238863529    -0.3679599392
   12      H      -2.7366688762     1.4417343177     0.3948135109
   13      H      -0.6824547191    -0.9188031670    -2.2845693092
   14      H       1.0753921024    -0.6783746602    -2.2052951963
   15      H      -0.0041482850     0.7432927610    -2.0900966248
 ----------------------------------------------------------------

   17    -495.0319191356      9.74E-09 Convergence criterion met
 Total energy in the final basis set = -495.0319191356

                    Orbital Energies (a.u.)
 --------------------------------------------------------------

 Alpha MOs
 -- Occupied --
-18.850 -18.780 -18.780 -18.727  -9.974  -9.950  -9.918  -9.913
 -9.887  -0.740  -0.699  -0.614  -0.603  -0.464  -0.410  -0.318
 -0.225  -0.184  -0.162  -0.144  -0.143  -0.125  -0.109  -0.091
 -0.086  -0.079  -0.060  -0.049  -0.027   0.042   0.058   0.066
  0.089   0.126   0.142

          Ground-State Mulliken Net Atomic Charges

     Atom                 Charge (a.u.)
  ----------------------------------------
      1 C                     0.276502
      2 O                    -0.613664
      3 O                    -0.561464
      4 C                    -0.405382
      5 C                    -0.433876
      6 O                    -0.627188
      7 C                     0.526011
      8 O                    -0.476851
      9 C                    -0.847620
     10 H                     0.180263
     11 H                     0.279435
     12 H                     0.158018
     13 H                     0.167521
     14 H                     0.195804
     15 H                     0.182491
  ----------------------------------------
  Sum of atomic charges =    -2.000000

                    Cartesian Multipole Moments
 -----------------------------------------------------------------
    Charge (ESU x 10^10)
                -9.6064
    Dipole Moment (Debye)
         X      -4.8654      Y       2.8282      Z      -2.3514
       Tot       6.0992
    Quadrupole Moments (Debye-Ang)
        XX     -89.7162     XY      -3.8295     YY     -89.0626
        XZ      -0.9860     YZ       0.9555     ZZ     -72.7582

 Frequency:       -26.76                  68.88                 186.18
 Force Cnst:      0.0037                 0.0222                 0.0388
 Red. Mass:       8.8658                 7.9427                 1.9005
 IR Intens:        0.624                  0.844                  3.998
 Frequency:       206.20                 234.20                 267.52
 Force Cnst:      0.0407                 0.0765                 0.0860
 Red. Mass:       1.6263                 2.3683                 2.0395
 IR Intens:        3.903                  3.110                  3.543
 Frequency:       295.22                 304.42                 328.99
 Force Cnst:      0.2133                 0.1298                 0.3792
 Red. Mass:       4.1534                 2.3768                 5.9462
 IR Intens:        4.522                  1.381                  0.836
 Frequency:       375.99                 451.40                 494.49
 Force Cnst:      0.3971                 0.4087                 0.6975
 Red. Mass:       4.7678                 3.4040                 4.8415
 IR Intens:        4.133                  6.273                  5.199
 Frequency:       559.53                 639.79                 705.73
 Force Cnst:      0.6849                 0.7910                 1.3281
 Red. Mass:       3.7129                 3.2799                 4.5257
 IR Intens:        8.231                  3.870                  5.952
 Frequency:       738.28                 762.36                 866.43
 Force Cnst:      1.4212                 4.5826                 1.1301
 Red. Mass:       4.4255                13.3828                 2.5549
 IR Intens:       16.613                 78.907                 30.573
 Frequency:       950.19                1007.12                1053.71
 Force Cnst:      1.5376                 0.9267                 1.3919
 Red. Mass:       2.8906                 1.5507                 2.1277
 IR Intens:       39.082                 13.463                 53.987
 Frequency:      1066.55                1146.68                1258.75
 Force Cnst:      1.2563                 1.9657                 6.4540
 Red. Mass:       1.8745                 2.5373                 6.9136
 IR Intens:       11.728                 63.128                388.151
 Frequency:      1290.84                1326.24                1341.43
 Force Cnst:      5.5685                 1.3836                 1.4110
 Red. Mass:       5.6720                 1.3351                 1.3309
 IR Intens:      112.404                 45.006                 84.910
 Frequency:      1470.34                1489.75                1497.40
 Force Cnst:      1.3464                 1.3910                 1.3985
 Red. Mass:       1.0570                 1.0638                 1.0586
 IR Intens:        5.764                  5.303                  8.181
 Frequency:      1519.32                1627.90                1688.66
 Force Cnst:      1.4437                18.2758                17.1712
 Red. Mass:       1.0615                11.7050                10.2204
 IR Intens:        6.124                501.522                364.653
 Frequency:      2968.66                2989.88                3041.47
 Force Cnst:      5.3958                 5.4563                 5.9687
 Red. Mass:       1.0392                 1.0360                 1.0951
 IR Intens:       92.231                187.271                107.331
 Frequency:      3048.28                3085.05                3120.73
 Force Cnst:      6.0218                 6.1598                 6.3004
 Red. Mass:       1.0999                 1.0985                 1.0980
 IR Intens:       99.628                 45.761                  3.608

 STANDARD THERMODYNAMIC QUANTITIES AT   298.15 K  AND     1.00 ATM

   This Molecule has  1 Imaginary Frequencies
   Zero point vibrational energy:       65.009 kcal/mol

   Atom    1 Element C  Has Mass   12.00000
   Atom    2 Element O  Has Mass   15.99491
   Atom    3 Element O  Has Mass   15.99491
   Atom    4 Element C  Has Mass   12.00000
   Atom    5 Element C  Has Mass   12.00000
   Atom    6 Element O  Has Mass   15.99491
   Atom    7 Element C  Has Mass   12.00000
   Atom    8 Element O  Has Mass   15.99491
   Atom    9 Element C  Has Mass   12.00000
   Atom   10 Element H  Has Mass    1.00783
   Atom   11 Element H  Has Mass    1.00783
   Atom   12 Element H  Has Mass    1.00783
   Atom   13 Element H  Has Mass    1.00783
   Atom   14 Element H  Has Mass    1.00783
   Atom   15 Element H  Has Mass    1.00783
   Molecular Mass:   130.026620 amu
   Principal axes and moments of inertia in amu*Bohr^2:
                             1           2           3
    Eigenvalues --      856.00497  1252.55421  1419.93519
          X               0.99706    -0.07594     0.01062
          Y               0.07583     0.99706     0.01063
          Z              -0.01140    -0.00979     0.99989
   Rotational Symmetry Number is   1
   The Molecule is an Asymmetric Top
   Translational Enthalpy:        0.889 kcal/mol
   Rotational Enthalpy:           0.889 kcal/mol
   Vibrational Enthalpy:         68.688 kcal/mol
   gas constant (RT):             0.592 kcal/mol
   Translational Entropy:        40.501  cal/mol.K
   Rotational Entropy:           28.811  cal/mol.K
   Vibrational Entropy:          21.052  cal/mol.K

   Total Enthalpy:               71.058 kcal/mol
   Total Entropy:                90.364  cal/mol.K

 Total job time:  3009.19s(wall), 3009.33s(cpu)
        *  Thank you very much for using Q-Chem.  Have a nice day.  *
