 Q-Chem 4.3, Q-Chem, Inc., Pleasanton, CA (2015)
 Q-Chem 4.3.0 for Intel X86 Linux

User input:
--------------------------------------------------------------
$rem
JOBTYPE Opt
EXCHANGE HF
BASIS 6-31+G(d)
GUI=2
SOLVENT_METHOD ONSAGER
pdb_print 2
NBO TRUE
$end

$comment
product
$end

$solvent
CavityRadius    30
Dielectric     78.39
$end

$molecule
-2 1
C        3.52200       -1.27800        2.47300
O        4.59900       -1.30300        1.83000
O        3.34100       -1.58600        3.73300
C        2.33500       -0.63100        1.79800
C        1.98400       -1.87300       -0.50400
O        1.34900       -0.20700        2.50100
C        2.12700       -0.48800        0.24600
O        1.05700        0.26200       -0.13700
C        3.36100        0.25500       -0.34100
H        3.14100        0.37800       -1.44100
H        4.31400       -0.45900       -0.37600
H        3.75000        1.22500       -0.00600
H        0.82900       -2.09700       -0.30800
H        2.53400       -2.74800       -0.01400
H        2.31800       -1.80800       -1.52600
$end

--------------------------------------------------------------

   18    -492.1595370679      3.96E-09 Convergence criterion met
 Total energy in the final basis set = -492.1595370679
   15    -492.1951348196      6.70E-09 Convergence criterion met
 Total energy in the final basis set = -492.1951348196
   15    -492.2099711474      3.22E-09 Convergence criterion met
 Total energy in the final basis set = -492.2099711474
   15    -492.2156178508      4.44E-09 Convergence criterion met
 Total energy in the final basis set = -492.2156178508
   14    -492.2181331023      7.58E-09 Convergence criterion met
 Total energy in the final basis set = -492.2181331023
   14    -492.2194433004      9.35E-09 Convergence criterion met
 Total energy in the final basis set = -492.2194433004
   14    -492.2208036759      6.19E-09 Convergence criterion met
 Total energy in the final basis set = -492.2208036759
   14    -492.2221245432      7.56E-09 Convergence criterion met
   13    -492.2275735227      8.28E-09 Convergence criterion met
 Total energy in the final basis set = -492.2275735227
   14    -492.2284655145      5.46E-09 Convergence criterion met
 Total energy in the final basis set = -492.2284655145
   13    -492.2290133931      7.53E-09 Convergence criterion met
 Total energy in the final basis set = -492.2290133931
   14    -492.2291176525      8.25E-09 Convergence criterion met
 Total energy in the final basis set = -492.2291176525
   12    -492.2291698281      7.94E-09 Convergence criterion met
 Total energy in the final basis set = -492.2291698281
   11    -492.2291714272      8.19E-09 Convergence criterion met
 Total energy in the final basis set = -492.2291714272

             Standard Nuclear Orientation (Angstroms)
    I     Atom           X                Y                Z
 ----------------------------------------------------------------
    1      C       1.4797545087     0.1675532171    -0.3840435517
    2      O       1.8248198945     1.2839585964     0.0352853812
    3      O       1.9650053165    -0.4886447241    -1.3145202305
    4      C       0.2978411086    -0.4888308028     0.3719139783
    5      C      -1.2461935076     0.4504915072    -1.4132602568
    6      O       0.5605848613    -1.2702319335     1.2505750067
    7      C      -1.1885943208    -0.0809144816     0.0479361017
    8      O      -2.0738670170    -1.0579361609     0.2396649735
    9      C      -1.4595990755     1.1308510218     0.9982920979
   10      H      -2.4661936224     1.4976510529     0.7919329893
   11      H      -0.7463000264     1.9461313324     0.8876509872
   12      H      -1.4356465198     0.7760906333     2.0257169902
   13      H      -1.0219385210    -0.3579981545    -2.1035525337
   14      H      -0.5669076198     1.2769598029    -1.6184707705
   15      H      -2.2683657948     0.7791043013    -1.6002625543
 ----------------------------------------------------------------

   10    -492.2291719255      7.08E-09 Convergence criterion met
 Total energy in the final basis set = -492.2291719255
 Final energy is   -492.229171925527
 **  OPTIMIZATION CONVERGED  **

                    Orbital Energies (a.u.)
 --------------------------------------------------------------

 Alpha MOs
 -- Occupied --
-20.246 -20.201 -20.200 -20.125 -11.026 -11.003 -10.965 -10.923
-10.919  -1.092  -1.062  -0.972  -0.932  -0.715  -0.642  -0.572
 -0.463  -0.370  -0.342  -0.333  -0.302  -0.289  -0.282  -0.264
 -0.245  -0.231  -0.211  -0.188  -0.176  -0.162  -0.104  -0.091
 -0.073  -0.021  -0.004

          Ground-State Mulliken Net Atomic Charges

     Atom                 Charge (a.u.)
  ----------------------------------------
      1 C                     0.517071
      2 O                    -0.751151
      3 O                    -0.749149
      4 C                     0.372158
      5 C                    -0.670863
      6 O                    -0.575383
      7 C                     0.369276
      8 O                    -0.843523
      9 C                    -0.702373
     10 H                     0.145928
     11 H                     0.187076
     12 H                     0.186440
     13 H                     0.195863
     14 H                     0.166554
     15 H                     0.152074
  ----------------------------------------
  Sum of atomic charges =    -2.000000

                    Cartesian Multipole Moments
 -----------------------------------------------------------------
    Charge (ESU x 10^10)
                -9.6064
    Dipole Moment (Debye)
         X      -0.9697      Y       3.2366      Z      -0.1385
       Tot       3.3815
    Quadrupole Moments (Debye-Ang)
        XX    -101.7735     XY     -11.4184     YY     -76.8835
        XZ       8.3214     YZ       2.4540     ZZ     -71.7602

 Total job time:  2759.53s(wall), 2761.72s(cpu)
        *  Thank you very much for using Q-Chem.  Have a nice day.  *
