 Q-Chem 4.3, Q-Chem, Inc., Pleasanton, CA (2015)
 Q-Chem 4.3.0 for Intel X86 Linux

User input:
--------------------------------------------------------------
$rem
JOBTYPE Opt
EXCHANGE B3LYP
BASIS 6-31+G(d)
GUI=2
pdb_print 2
NBO TRUE
$end

$comment
product
$end

$molecule
-2 1
C        3.52200       -1.27800        2.47300
O        4.59900       -1.30300        1.83000
O        3.34100       -1.58600        3.73300
C        2.33500       -0.63100        1.79800
C        1.98400       -1.87300       -0.50400
O        1.34900       -0.20700        2.50100
C        2.12700       -0.48800        0.24600
O        1.05700        0.26200       -0.13700
C        3.36100        0.25500       -0.34100
H        3.14100        0.37800       -1.44100
H        4.31400       -0.45900       -0.37600
H        3.75000        1.22500       -0.00600
H        0.82900       -2.09700       -0.30800
H        2.53400       -2.74800       -0.01400
H        2.31800       -1.80800       -1.52600
$end

--------------------------------------------------------------

   17    -494.9684582867      9.73E-09 Convergence criterion met
 Total energy in the final basis set = -494.9684582867
   14    -494.9903057824      7.57E-09 Convergence criterion met
 Total energy in the final basis set = -494.9903057824
   14    -495.0021440972      6.49E-09 Convergence criterion met
 Total energy in the final basis set = -495.0021440972
   14    -495.0072315753      9.02E-09 Convergence criterion met
 Total energy in the final basis set = -495.0072315753
   13    -495.0091920317      8.57E-09 Convergence criterion met
 Total energy in the final basis set = -495.0091920317
   13    -495.0104675548      4.00E-09 Convergence criterion met
 Total energy in the final basis set = -495.0104675548
   13    -495.0115095535      5.43E-09 Convergence criterion met
 Total energy in the final basis set = -495.0115095535
   13    -495.0125508286      6.62E-09 Convergence criterion met
   12    -495.0183111816      8.56E-09 Convergence criterion met
 Total energy in the final basis set = -495.0183111816
   12    -495.0183693354      5.94E-09 Convergence criterion met
 Total energy in the final basis set = -495.0183693354
   12    -495.0184078613      5.15E-09 Convergence criterion met
 Total energy in the final basis set = -495.0184078613
   12    -495.0184219537      3.90E-09 Convergence criterion met
 Total energy in the final basis set = -495.0184219537
   12    -495.0184281812      3.82E-09 Convergence criterion met
 Total energy in the final basis set = -495.0184281812
   11    -495.0184293465      7.94E-09 Convergence criterion met
 Total energy in the final basis set = -495.0184293465

             Standard Nuclear Orientation (Angstroms)
    I     Atom           X                Y                Z
 ----------------------------------------------------------------
    1      C       1.4935912597     0.1806123575    -0.3734001104
    2      O       1.8510673609     1.3090802981     0.0764372041
    3      O       1.9889967140    -0.4670893790    -1.3377611790
    4      C       0.3076431309    -0.4966384035     0.3738999264
    5      C      -1.2565616781     0.4485288017    -1.4247887307
    6      O       0.5663108779    -1.3139662161     1.2552375786
    7      C      -1.2049068310    -0.0979469807     0.0457785979
    8      O      -2.0950253368    -1.0802594536     0.2489807776
    9      C      -1.4640632696     1.1390972896     1.0001300658
   10      H      -2.4841791700     1.5018961413     0.7940144067
   11      H      -0.7399044931     1.9575774230     0.8716387976
   12      H      -1.4283900132     0.7840862394     2.0385272440
   13      H      -1.0583297953    -0.3741924577    -2.1230979196
   14      H      -0.5417498525     1.2604100270    -1.6280964973
   15      H      -2.2800992392     0.8130395210    -1.6026415532
 ----------------------------------------------------------------

   11    -495.0184302348      6.13E-09 Convergence criterion met
 Total energy in the final basis set = -495.0184302348
 Final energy is   -495.018430234804
 **  OPTIMIZATION CONVERGED  **

                    Orbital Energies (a.u.)
 --------------------------------------------------------------

 Alpha MOs
 -- Occupied --
-18.842 -18.806 -18.805 -18.742  -9.976  -9.960  -9.932  -9.892
 -9.888  -0.740  -0.714  -0.640  -0.616  -0.449  -0.396  -0.336
 -0.249  -0.176  -0.155  -0.144  -0.133  -0.125  -0.114  -0.107
 -0.089  -0.072  -0.066  -0.046  -0.033   0.008   0.042   0.057
  0.073   0.113   0.122

          Ground-State Mulliken Net Atomic Charges

     Atom                 Charge (a.u.)
  ----------------------------------------
      1 C                     0.186954
      2 O                    -0.589502
      3 O                    -0.596071
      4 C                     0.391604
      5 C                    -0.625942
      6 O                    -0.469236
      7 C                    -0.126073
      8 O                    -0.664184
      9 C                    -0.611384
     10 H                     0.159919
     11 H                     0.202715
     12 H                     0.191829
     13 H                     0.201762
     14 H                     0.187847
     15 H                     0.159763
  ----------------------------------------
  Sum of atomic charges =    -2.000000

                    Cartesian Multipole Moments
 -----------------------------------------------------------------
    Charge (ESU x 10^10)
                -9.6064
    Dipole Moment (Debye)
         X      -0.7297      Y       2.8415      Z       0.1178
       Tot       2.9361
    Quadrupole Moments (Debye-Ang)
        XX    -104.0203     XY     -10.0997     YY     -78.9944
        XZ       8.1268     YZ       1.9144     ZZ     -74.4507

 Total job time:  4277.01s(wall), 4284.68s(cpu)
        *  Thank you very much for using Q-Chem.  Have a nice day.  *
