 Q-Chem 4.3, Q-Chem, Inc., Pleasanton, CA (2015)
 Q-Chem 4.3.0 for Intel X86 Linux

User input:
--------------------------------------------------------------
$comment
Title
$end

$molecule
-2 1
C         3.481        -1.226          2.648
O         4.604        -1.388          2.116
O         3.308        -1.488          3.891
C         2.335        -0.605          1.799
C         1.973        -2.138          0.357
O         1.206        -0.364          2.418
C         2.455        -0.141          0.436
O         1.453         0.415         -0.184
C         3.843         0.018         -0.124
H         3.767        -0.064         -1.181
H         4.413        -0.892          0.246
H         4.306         0.951          0.292
H         1.118        -1.862         -0.391
H         1.592        -2.750          1.216
H         2.921        -2.490         -0.096
$end

$solvent
CavityRadius    30
Dielectric     78.39
$end

$molecule
READ
$end

$rem
jobtype          FREQ
exchange         b3lyp
basis            6-31+G(d)
pdb_print 2
SOLVENT_METHOD ONSAGER
NBO TRUE
$end

--------------------------------------------------------------

   17    -494.9827989688      6.40E-09 Convergence criterion met
 Total energy in the final basis set = -494.9827989688
 Frequency:      -333.53                -137.08                 120.82
 Force Cnst:      0.3961                 0.1023                 0.0289
 Red. Mass:       6.0437                 9.2427                 3.3633
 IR Intens:      135.216                  0.565                  3.594
 Frequency:       160.25                 251.94                 303.23
 Force Cnst:      0.0305                 0.1392                 0.2439
 Red. Mass:       2.0185                 3.7222                 4.5030
 IR Intens:        0.302                  5.291                 44.171
 Frequency:       339.55                 364.64                 416.47
 Force Cnst:      0.1993                 0.2698                 0.7972
 Red. Mass:       2.9345                 3.4441                 7.8006
 IR Intens:       17.302                  7.368                  1.943
 Frequency:       440.83                 467.63                 528.03
 Force Cnst:      0.7137                 0.1744                 0.4857
 Red. Mass:       6.2334                 1.3537                 2.9568
 IR Intens:       15.850                 18.042                 36.514
 Frequency:       538.09                 550.51                 689.74
 Force Cnst:      0.7946                 0.6179                 1.4492
 Red. Mass:       4.6582                 3.4606                 5.1701
 IR Intens:       38.904                 49.943                 29.563
 Frequency:       787.46                 819.60                 902.17
 Force Cnst:      2.2617                 3.3606                 0.6151
 Red. Mass:       6.1907                 8.4910                 1.2827
 IR Intens:       35.607                 47.203                 27.524
 Frequency:       940.63                 997.15                1048.51
 Force Cnst:      0.8635                 0.8085                 2.0835
 Red. Mass:       1.6564                 1.3801                 3.2166
 IR Intens:       28.398                 10.554                 77.223
 Frequency:      1101.45                1169.85                1262.38
 Force Cnst:      1.1178                 0.9746                 5.2209
 Red. Mass:       1.5638                 1.2087                 5.5605
 IR Intens:       10.187                  7.668                143.194
 Frequency:      1346.99                1370.90                1386.64
 Force Cnst:      6.6241                12.4415                 1.5392
 Red. Mass:       6.1966                11.2361                 1.3586
 IR Intens:      170.232                278.602                 56.754
 Frequency:      1435.31                1451.40                1500.87
 Force Cnst:      1.7962                 1.3747                 2.5426
 Red. Mass:       1.4798                 1.1076                 1.9158
 IR Intens:      178.388                  4.028                236.367
 Frequency:      1513.30                1546.50                1626.87
 Force Cnst:      1.4732                 1.8459                11.8187
 Red. Mass:       1.0919                 1.3100                 7.5790
 IR Intens:       19.547                 74.050                410.099
 Frequency:      2467.03                2713.65                2854.16
 Force Cnst:      3.8143                 4.6194                 5.1807
 Red. Mass:       1.0637                 1.0647                 1.0794
 IR Intens:       38.276                 75.481                 63.069
 Frequency:      2858.50                3003.12                3380.26
 Force Cnst:      5.1338                 5.8608                 7.3079
 Red. Mass:       1.0664                 1.1030                 1.0855
 IR Intens:       39.626                 65.426                 97.108
 Total job time:  2997.45s(wall), 2997.93s(cpu)
        *  Thank you very much for using Q-Chem.  Have a nice day.  *
 Q-Chem 4.3, Q-Chem, Inc., Pleasanton, CA (2015)
 Q-Chem 4.3.0 for Intel X86 Linux

User input:
--------------------------------------------------------------

$molecule
READ
$end

$solvent
CavityRadius    30
Dielectric     78.39
$end

$rem
SOLVENT_METHOD ONSAGER
jobtype          TS
exchange         b3lyp
basis            6-31+G(d)
geom_opt_maxcyc  100
$end

--------------------------------------------------------------

   17    -494.9827989689      6.40E-09 Convergence criterion met
 Total energy in the final basis set = -494.9827989689
   14    -494.9882319659      4.26E-09 Convergence criterion met
 Total energy in the final basis set = -494.9882319659
   14    -495.0052563755      4.45E-09 Convergence criterion met
 Total energy in the final basis set = -495.0052563755
   14    -495.0095388579      5.23E-09 Convergence criterion met
 Total energy in the final basis set = -495.0095388579
   13    -495.0123281407      8.14E-09 Convergence criterion met
 Total energy in the final basis set = -495.0123281407
   14    -495.0144484575      5.17E-09 Convergence criterion met
 Total energy in the final basis set = -495.0144484575
   13    -495.0155076897      7.06E-09 Convergence criterion met
   10    -495.0449650204      7.84E-09 Convergence criterion met
 Total energy in the final basis set = -495.0449650204
   12    -495.0449106327      5.69E-09 Convergence criterion met
 Total energy in the final basis set = -495.0449106327
   12    -495.0449663220      6.70E-09 Convergence criterion met
 Total energy in the final basis set = -495.0449663220
   11    -495.0449626306      6.93E-09 Convergence criterion met
 Total energy in the final basis set = -495.0449626306
   11    -495.0449682817      5.47E-09 Convergence criterion met
 Total energy in the final basis set = -495.0449682817
    9    -495.0449685343      7.82E-09 Convergence criterion met
 Total energy in the final basis set = -495.0449685343
 Final energy is   -495.044968534294
 **  OPTIMIZATION CONVERGED  **
        *  Thank you very much for using Q-Chem.  Have a nice day.  *
 Q-Chem 4.3, Q-Chem, Inc., Pleasanton, CA (2015)
 Q-Chem 4.3.0 for Intel X86 Linux

User input:
--------------------------------------------------------------

$solvent
CavityRadius    30
Dielectric     78.39
$end

$molecule
READ
$end

$rem
jobtype          FREQ
exchange         b3lyp
basis            6-31+G(d)
pdb_print 2
NBO TRUE
SOLVENT_METHOD ONSAGER
$end
--------------------------------------------------------------

             Standard Nuclear Orientation (Angstroms)
    I     Atom           X                Y                Z
 ----------------------------------------------------------------
    1      C       1.6155390560     0.2520942737     0.0005972929
    2      O       1.4557737792     1.5076175361     0.0025924822
    3      O       2.7058690745    -0.3778310498    -0.0031583951
    4      C       0.2808370576    -0.6689372916     0.0039673153
    5      C      -1.2915285926     0.8533646526    -1.2799922971
    6      O       0.4350206593    -1.8794904469     0.0068506860
    7      C      -1.2011401525    -0.0628050672     0.0014227433
    8      O      -2.1697912763    -0.9888470424     0.0105001076
    9      C      -1.2936491431     0.8781959268     1.2628187476
   10      H      -2.3026019269     1.3204616903     1.2569440146
   11      H      -0.5289692405     1.6644707923     1.2780350207
   12      H      -1.2099811549     0.2591618178     2.1687350203
   13      H      -1.2061784677     0.2158504633    -2.1728799471
   14      H      -0.5275053628     1.6403122697    -1.3114919085
   15      H      -2.3000910936     1.2966760248    -1.2865040583
 ----------------------------------------------------------------

   17    -495.0450839119      5.93E-09 Convergence criterion met
 Total energy in the final basis set = -495.0450839119

                    Orbital Energies (a.u.)
 --------------------------------------------------------------

 Alpha MOs
 -- Occupied --
-18.844 -18.801 -18.799 -18.738  -9.975  -9.957  -9.928  -9.886
 -9.885  -0.740  -0.714  -0.636  -0.612  -0.442  -0.392  -0.323
 -0.240  -0.173  -0.150  -0.145  -0.131  -0.117  -0.114  -0.105
 -0.088  -0.072  -0.060  -0.042  -0.031   0.015   0.047   0.061
  0.080   0.116   0.122

          Ground-State Mulliken Net Atomic Charges

     Atom                 Charge (a.u.)
  ----------------------------------------
      1 C                     0.337215
      2 O                    -0.605907
      3 O                    -0.622280
      4 C                     0.275606
      5 C                    -0.638814
      6 O                    -0.420807
      7 C                    -0.125769
      8 O                    -0.665666
      9 C                    -0.640768
     10 H                     0.160436
     11 H                     0.218617
     12 H                     0.174761
     13 H                     0.175442
     14 H                     0.217265
     15 H                     0.160668
  ----------------------------------------
  Sum of atomic charges =    -2.000000

                    Cartesian Multipole Moments
 -----------------------------------------------------------------
    Charge (ESU x 10^10)
                -9.6064
    Dipole Moment (Debye)
         X      -0.3827      Y       2.2506      Z      -0.0237
       Tot       2.2830
    Quadrupole Moments (Debye-Ang)
        XX    -111.7664     XY      -8.5221     YY     -83.4248
        XZ       0.0956     YZ       0.0375     ZZ     -64.2702

 Frequency:       -62.97                  85.29                 197.16
 Force Cnst:      0.0294                 0.0239                 0.0355
 Red. Mass:      12.6036                 5.5702                 1.5504
 IR Intens:        0.771                  1.730                  3.130
 Frequency:       201.63                 247.81                 250.29
 Force Cnst:      0.1279                 0.0586                 0.0442
 Red. Mass:       5.3414                 1.6194                 1.1967
 IR Intens:        7.909                  3.739                  0.933
 Frequency:       289.08                 331.35                 358.59
 Force Cnst:      0.1525                 0.5210                 0.3138
 Red. Mass:       3.0967                 8.0536                 4.1424
 IR Intens:        0.032                  1.394                  1.633
 Frequency:       401.93                 435.86                 525.74
 Force Cnst:      0.5376                 0.4952                 0.6249
 Red. Mass:       5.6486                 4.4239                 3.8375
 IR Intens:        1.186                 16.167                  4.486
 Frequency:       536.90                 602.16                 766.01
 Force Cnst:      1.0954                 1.0237                 4.5224
 Red. Mass:       6.4493                 4.7916                13.0815
 IR Intens:        6.127                 14.540                 76.818
 Frequency:       787.95                 811.58                 857.84
 Force Cnst:      1.9248                 1.1990                 0.8910
 Red. Mass:       5.2617                 3.0896                 2.0551
 IR Intens:        4.783                  1.839                 30.591
 Frequency:       937.81                 989.66                1029.79
 Force Cnst:      3.5364                 0.7810                 1.1824
 Red. Mass:       6.8245                 1.3534                 1.8924
 IR Intens:       55.417                  5.291                 59.338
 Frequency:      1112.72                1161.04                1243.85
 Force Cnst:      1.8549                 1.7103                 4.4160
 Red. Mass:       2.5427                 2.1534                 4.8444
 IR Intens:       55.707                  8.537                212.251
 Frequency:      1328.27                1331.66                1352.26
 Force Cnst:      9.1361                 1.2609                 1.3827
 Red. Mass:       8.7890                 1.2068                 1.2834
 IR Intens:      127.008                 23.852                 58.334
 Frequency:      1482.65                1495.27                1500.18
 Force Cnst:      1.3603                 1.3946                 1.4026
 Red. Mass:       1.0503                 1.0587                 1.0578
 IR Intens:        0.320                 14.203                  1.328
 Frequency:      1516.41                1644.71                1734.72
 Force Cnst:      1.4305                18.1787                23.2886
 Red. Mass:       1.0559                11.4060                13.1352
 IR Intens:        6.457                507.685                273.486
 Frequency:      2981.00                2988.81                3039.26
 Force Cnst:      5.4226                 5.4484                 5.9813
 Red. Mass:       1.0357                 1.0352                 1.0990
 IR Intens:       92.783                144.337                 71.202
 Frequency:      3045.66                3089.35                3097.04
 Force Cnst:      5.9969                 6.1871                 6.2116
 Red. Mass:       1.0973                 1.1003                 1.0992
 IR Intens:      103.193                  5.662                 86.991

 STANDARD THERMODYNAMIC QUANTITIES AT   298.15 K  AND     1.00 ATM

   This Molecule has  1 Imaginary Frequencies
   Zero point vibrational energy:       65.459 kcal/mol

   Atom    1 Element C  Has Mass   12.00000
   Atom    2 Element O  Has Mass   15.99491
   Atom    3 Element O  Has Mass   15.99491
   Atom    4 Element C  Has Mass   12.00000
   Atom    5 Element C  Has Mass   12.00000
   Atom    6 Element O  Has Mass   15.99491
   Atom    7 Element C  Has Mass   12.00000
   Atom    8 Element O  Has Mass   15.99491
   Atom    9 Element C  Has Mass   12.00000
   Atom   10 Element H  Has Mass    1.00783
   Atom   11 Element H  Has Mass    1.00783
   Atom   12 Element H  Has Mass    1.00783
   Atom   13 Element H  Has Mass    1.00783
   Atom   14 Element H  Has Mass    1.00783
   Atom   15 Element H  Has Mass    1.00783
   Molecular Mass:   130.026620 amu
   Principal axes and moments of inertia in amu*Bohr^2:
                             1           2           3
    Eigenvalues --      707.99197  1385.70939  1701.32280
          X               0.99896    -0.04565     0.00027
          Y               0.04565     0.99896     0.00061
          Z              -0.00030    -0.00060     1.00000
   Rotational Symmetry Number is   1
   The Molecule is an Asymmetric Top
   Translational Enthalpy:        0.889 kcal/mol
   Rotational Enthalpy:           0.889 kcal/mol
   Vibrational Enthalpy:         69.045 kcal/mol
   gas constant (RT):             0.592 kcal/mol
   Translational Entropy:        40.501  cal/mol.K
   Rotational Entropy:           28.902  cal/mol.K
   Vibrational Entropy:          20.177  cal/mol.K

   Total Enthalpy:               71.415 kcal/mol
   Total Entropy:                89.580  cal/mol.K

 Total job time:  2945.75s(wall), 2945.67s(cpu)
        *  Thank you very much for using Q-Chem.  Have a nice day.  *
